                               Psi4 1.3.2 release

  ==> Input File <==

--------------------------------------------------------------------------
molecule {
0 1
N           -0.722893621046     0.000490991181     0.005516236285
C            0.734078574992    -0.005873778113    -0.065371307355
H            1.257776691236     0.081142038317     0.901897547269
H            1.066421288456     0.821296371660    -0.700844511797
H            1.066434324584    -0.933171243584    -0.543016840225
H           -1.043527900354     0.855953511482     0.449082032278
H           -1.043515059629    -0.762104611620     0.594602210770
}
memory 700MB
set_num_threads(1)
psi4_io.set_default_path("/scratch/bdw2292")
set freeze_core True
set PROPERTIES_ORIGIN ["COM"]
E, wfn = properties('mp2/6-311++G(2d,2p)',properties=['dipole'],return_wfn=True)
oeprop(wfn,"GRID_ESP","WIBERG_LOWDIN_INDICES")
clean()
--------------------------------------------------------------------------

    Molecular point group: c1
  Charge       = 0
  Multiplicity = 1
  Basis Set: 6-311++G(2D,2P)
    Blend: 6-311++G(2D,2P)
  Basis Set: (6-311++G(2D,2P) AUX)
    Blend: AUG-CC-PVTZ-JKFIT

    Orbital Energies [Eh]
    ---------------------

    Doubly Occupied:

       1A    -15.539793     2A    -11.242148     3A     -1.171404
       4A     -0.893694     5A     -0.662604     6A     -0.604008
       7A     -0.556024     8A     -0.515130     9A     -0.391759

  @DF-RHF Final Energy:   -95.25009911104661

   => Energetics <=

    Nuclear Repulsion Energy =             42.0160711464088479
    One-Electron Energy =                -211.3792123391519340
    Two-Electron Energy =                  74.1130420816964772
    Total Energy =                        -95.2500991110466089
  Basis Set: (6-311++G(2D,2P) AUX)
    Blend: AUG-CC-PVTZ-RI
    Molecular point group: c1

    Geometry (in Angstrom), charge = 0, multiplicity = 1:

       Center              X                  Y                   Z               Mass
    ------------   -----------------  -----------------  -----------------  -----------------
         N           -0.722893621046     0.000490991181     0.005516236285    14.003074004430
         C            0.734078574992    -0.005873778113    -0.065371307355    12.000000000000
         H            1.257776691236     0.081142038317     0.901897547269     1.007825032230
         H            1.066421288456     0.821296371660    -0.700844511797     1.007825032230
         H            1.066434324584    -0.933171243584    -0.543016840225     1.007825032230
         H           -1.043527900354     0.855953511482     0.449082032278     1.007825032230
         H           -1.043515059629    -0.762104611620     0.594602210770     1.007825032230

  Basis Set: 6-311++G(2D,2P)
    Blend: 6-311++G(2D,2P)
  Basis Set: (6-311++G(2D,2P) AUX)
    Blend: AUG-CC-PVTZ-JKFIT
	 Reference Energy          =     -95.2500991110466089 [Eh]
	 Singles Energy            =      -0.0000000000000000 [Eh]
	 Same-Spin Energy          =      -0.0836060158019536 [Eh]
	 Opposite-Spin Energy      =      -0.2868258315290030 [Eh]
	 Correlation Energy        =      -0.3704318473309566 [Eh]
	 Total Energy              =     -95.6205309583775716 [Eh]

	 ================> DF-SCS-MP2 Energies <==================
	-----------------------------------------------------------
	 SCS Same-Spin Scale       =       0.3333333333333333 [-]
	 SCS Opposite-Spin Scale   =       1.2000000000000000 [-]
	 SCS Same-Spin Energy      =      -0.0278686719339845 [Eh]
	 SCS Opposite-Spin Energy  =      -0.3441909978348036 [Eh]
	 SCS Correlation Energy    =      -0.3720596697687881 [Eh]
	 SCS Total Energy          =     -95.6221587808153970 [Eh]
	-----------------------------------------------------------

  Dipole Moment: [D]
     X:     0.5102      Y:     0.1182      Z:     1.3146     Total:     1.4151

*** Psi4 exiting successfully. Buy a developer a beer!
