                               Psi4 1.3.2 release

  ==> Input File <==

--------------------------------------------------------------------------
molecule {
0 1
N           -0.722893621046     0.000490991181     0.005516236285
C            0.734078574992    -0.005873778113    -0.065371307355
H            1.257776691236     0.081142038317     0.901897547269
H            1.066421288456     0.821296371660    -0.700844511797
H            1.066434324584    -0.933171243584    -0.543016840225
H           -1.043527900354     0.855953511482     0.449082032278
H           -1.043515059629    -0.762104611620     0.594602210770
}
memory 700MB
set_num_threads(1)
psi4_io.set_default_path("/scratch/bdw2292")
set freeze_core True
set PROPERTIES_ORIGIN ["COM"]
E, wfn = energy('mp2/6-311G**',properties=['dipole'],return_wfn=True)
fchk(wfn, "methylamine-dma.fchk")
clean()
--------------------------------------------------------------------------

    Molecular point group: c1

    Geometry (in Angstrom), charge = 0, multiplicity = 1:

       Center              X                  Y                   Z               Mass
    ------------   -----------------  -----------------  -----------------  -----------------
         N           -0.722893621046     0.000490991181     0.005516236285    14.003074004430
         C            0.734078574992    -0.005873778113    -0.065371307355    12.000000000000
         H            1.257776691236     0.081142038317     0.901897547269     1.007825032230
         H            1.066421288456     0.821296371660    -0.700844511797     1.007825032230
         H            1.066434324584    -0.933171243584    -0.543016840225     1.007825032230
         H           -1.043527900354     0.855953511482     0.449082032278     1.007825032230
         H           -1.043515059629    -0.762104611620     0.594602210770     1.007825032230

  Charge       = 0
  Multiplicity = 1
  Basis Set: 6-311G**
    Blend: 6-311G**
  Basis Set: (6-311G** AUX)
    Blend: CC-PVTZ-JKFIT

    Orbital Energies [Eh]
    ---------------------

    Doubly Occupied:

       1A    -15.530617     2A    -11.241059     3A     -1.166507
       4A     -0.891151     5A     -0.657894     6A     -0.600276
       7A     -0.552560     8A     -0.512523     9A     -0.387986

  @DF-RHF Final Energy:   -95.24182131264567

   => Energetics <=

    Nuclear Repulsion Energy =             42.0160711464088479
    One-Electron Energy =                -211.4346387426823242
    Two-Electron Energy =                  74.1767462836278071
    Total Energy =                        -95.2418213126456692

  Dipole Moment: [D]
     X:     0.4727      Y:     0.1241      Z:     1.3797     Total:     1.4637

  Basis Set: (6-311G** AUX)
    Blend: CC-PVTZ-RI
	 Reference Energy          =     -95.2418213126456692 [Eh]
	 Singles Energy            =      -0.0000000000000000 [Eh]
	 Same-Spin Energy          =      -0.0778082053510221 [Eh]
	 Opposite-Spin Energy      =      -0.2677275132205658 [Eh]
	 Correlation Energy        =      -0.3455357185715878 [Eh]
	 Total Energy              =     -95.5873570312172518 [Eh]

	 ================> DF-SCS-MP2 Energies <==================
	-----------------------------------------------------------
	 SCS Same-Spin Scale       =       0.3333333333333333 [-]
	 SCS Opposite-Spin Scale   =       1.2000000000000000 [-]
	 SCS Same-Spin Energy      =      -0.0259360684503407 [Eh]
	 SCS Opposite-Spin Energy  =      -0.3212730158646789 [Eh]
	 SCS Correlation Energy    =      -0.3472090843150196 [Eh]
	 SCS Total Energy          =     -95.5890303969606947 [Eh]
	-----------------------------------------------------------

*** Psi4 exiting successfully. Buy a developer a beer!
