                               Psi4 1.3.2 release

  ==> Input File <==

--------------------------------------------------------------------------
molecule {
0 1
 N   -0.715400    0.000000    0.000000
 C    0.715400    0.000000    0.000000
 H    1.106900    0.091600    1.017400
 H    1.099600    0.834900   -0.593000
 H    1.099600   -0.927400   -0.434500
 H   -1.062500    0.856400    0.429400
 H   -1.062500   -0.766100    0.575300
}
set {
 geom_maxiter 400
}
memory 700MB
set_num_threads(1)
psi4_io.set_default_path("/scratch/bdw2292")
optimize('wb97x-d/6-31G*')
clean()
--------------------------------------------------------------------------

    Molecular point group: c1
  Charge       = 0
  Multiplicity = 1
  Basis Set: 6-31G*
    Blend: 6-31G*
  Basis Set: (6-31G* AUX)
    Blend: CC-PVDZ-JKFIT
  @DF-RKS Final Energy:   -95.81984566038952
    Total Energy =                        -95.8198456603895039
    Molecular point group: c1
  Basis Set: 6-31G*
    Blend: 6-31G*
  Basis Set: (6-31G* AUX)
    Blend: CC-PVDZ-JKFIT
  Basis Set: 6-31G*
    Blend: 6-31G*
  Basis Set: (6-31G* AUX)
    Blend: CC-PVDZ-JKFIT
  @DF-RKS Final Energy:   -95.82120328999244
    Total Energy =                        -95.8212032899924537
  Basis Set: 6-31G*
    Blend: 6-31G*
  Basis Set: (6-31G* AUX)
    Blend: CC-PVDZ-JKFIT
  Basis Set: 6-31G*
    Blend: 6-31G*
  Basis Set: (6-31G* AUX)
    Blend: CC-PVDZ-JKFIT
  @DF-RKS Final Energy:   -95.82133437034197
    Total Energy =                        -95.8213343703419724
  Basis Set: 6-31G*
    Blend: 6-31G*
  Basis Set: (6-31G* AUX)
    Blend: CC-PVDZ-JKFIT
  Charge       = 0
  Multiplicity = 1
  Basis Set: 6-31G*
    Blend: 6-31G*
  Basis Set: (6-31G* AUX)
    Blend: CC-PVDZ-JKFIT

    Orbital Energies [Eh]
    ---------------------

    Doubly Occupied:

       1A    -14.423714     2A    -10.306881     3A     -0.968953
       4A     -0.749494     5A     -0.571734     6A     -0.519855
       7A     -0.480372     8A     -0.444867     9A     -0.310258

  @DF-RKS Final Energy:   -95.82133953496073

   => Energetics <=

    Nuclear Repulsion Energy =             42.0160711464196623
    One-Electron Energy =                -211.6133785996620702
    Two-Electron Energy =                  83.4250607146819334
    DFT Exchange-Correlation Energy =      -9.6477644655987351
    Empirical Dispersion Energy =          -0.0013283308014982
    VV10 Nonlocal Energy =                  0.0000000000000000
    Total Energy =                        -95.8213395349607282

  Dipole Moment: [D]
     X:     0.4345      Y:     0.1295      Z:     1.4402     Total:     1.5098

    Molecular point group: c1
  Basis Set: 6-31G*
    Blend: 6-31G*
  Basis Set: (6-31G* AUX)
    Blend: CC-PVDZ-JKFIT

  -Total Gradient:
     Atom            X                  Y                   Z
    ------   -----------------  -----------------  -----------------
       1        0.000291298551     0.000016382231     0.000183021130
       2       -0.000501736269    -0.000008283908    -0.000088111224
       3        0.000170609023     0.000004637379     0.000051896215
       4        0.000087904226     0.000030880339    -0.000063010043
       5        0.000087769850    -0.000041193333    -0.000056059392
       6       -0.000020850472    -0.000044711685    -0.000042689609
       7       -0.000020742590     0.000036455765    -0.000050292684

  **** Optimization is complete! (in 4 steps) ****
    Final optimized geometry and variables:
    Molecular point group: c1

    Geometry (in Angstrom), charge = 0, multiplicity = 1:

    N           -0.722893621046     0.000490991181     0.005516236285
    C            0.734078574992    -0.005873778113    -0.065371307355
    H            1.257776691236     0.081142038317     0.901897547269
    H            1.066421288456     0.821296371660    -0.700844511797
    H            1.066434324584    -0.933171243584    -0.543016840225
    H           -1.043527900354     0.855953511482     0.449082032278
    H           -1.043515059629    -0.762104611620     0.594602210770

*** Psi4 exiting successfully. Buy a developer a beer!
