 Gaussian 09, Revision A.02,
 Gaussian 09:  EM64L-G09RevA.02 11-Jun-2009

 ----------------------------------------------------------------------
 #P MP2/6-311++G** SP SCF=(qc,maxcycle=800) Guess=Indo MaxDisk=100GB Po
 p=NBORead
 ----------------------------------------------------------------------

 ---------------------------------------------------------------------
 ModifiedRes Rotatable Bond SP Calculation on g2-node38.bme.utexas.edu
 ---------------------------------------------------------------------
 Symbolic Z-matrix:
 Charge =  0 Multiplicity = 1

                         Standard orientation:
 ---------------------------------------------------------------------
 Center     Atomic      Atomic             Coordinates (Angstroms)
 Number     Number       Type             X           Y           Z
 ---------------------------------------------------------------------
      1          6           0        1.407358    1.998167   -0.575324
      2          8           0        1.760980    2.201049    0.591590
      3          7           0        0.814578    0.836201   -0.974599
      4          1           0        0.649047    0.695329   -1.966907
      5          6           0        0.432217   -0.224324   -0.026827
      6          1           0        0.150599    0.261635    0.919403
      7          6           0        1.640375   -1.148616    0.230453
      8          8           0        1.693272   -2.246967   -0.326380
      9          1           0       -0.493889   -1.530345   -1.506853
     10          1           0       -0.967050   -1.839327    0.171345
     11          6           0       -0.758410   -1.055335   -0.558896
     12         16           0       -2.236360    0.003739   -0.859431
     13          6           0       -2.795415    0.122124    0.743018
     14          7           0       -3.142709    0.220801    1.871862
     15          7           0        2.584069   -0.660797    1.077768
     16          1           0        1.567558    2.730013   -1.382577
     17          1           0        2.498915    0.295226    1.414218
     18          1           0        3.394242   -1.230542    1.280845
 ---------------------------------------------------------------------

 SCF Done:  E(RHF) =  -904.161945801     a.u. after   12 cycles
 E2 =    -0.1757242879D+01 EUMP2 =    -0.90591918868032D+03

 The electronic state is 1-A.
 Alpha  occ. eigenvalues --  -92.03169 -20.55987 -20.54300 -15.63309 -15.60334
 Alpha  occ. eigenvalues --  -15.60008 -11.39238 -11.38030 -11.32887 -11.31867
 Alpha  occ. eigenvalues --  -11.31681  -9.03302  -6.71558  -6.71375  -6.71227
 Alpha  occ. eigenvalues --   -1.41206  -1.39792  -1.27377  -1.23066  -1.22651
 Alpha  occ. eigenvalues --   -1.12234  -1.03343  -0.91911  -0.86811  -0.80932
 Alpha  occ. eigenvalues --   -0.76472  -0.75080  -0.71215  -0.70521  -0.67234
 Alpha  occ. eigenvalues --   -0.63482  -0.62613  -0.61657  -0.59265  -0.57757
 Alpha  occ. eigenvalues --   -0.56792  -0.55788  -0.53983  -0.52362  -0.47243
 Alpha  occ. eigenvalues --   -0.46560  -0.46103  -0.42860  -0.41914  -0.39497
 Alpha virt. eigenvalues --    0.02592   0.04569   0.04680   0.06032   0.06883
 Alpha virt. eigenvalues --    0.07929   0.08264   0.09135   0.09474   0.10511
 Alpha virt. eigenvalues --    0.10773   0.11657   0.12294   0.12881   0.13017

 Mulliken atomic charges:
              1
     1  C    0.269825
     2  O   -0.455323
     3  N   -0.142884
     4  H    0.343334
     5  C   -0.534539
     6  H    0.305010
     7  C    0.325042
     8  O   -0.412600
     9  H    0.295275
    10  H    0.241670
    11  C   -0.503702
    12  S    0.465025
    13  C   -0.401748
    14  N   -0.160890
    15  N   -0.472571
    16  H    0.157474
    17  H    0.314376
    18  H    0.367225
 Sum of Mulliken atomic charges =   0.00000

 Dipole moment (field-independent basis, Debye):
    X=              1.9500    Y=              0.8126    Z=             -4.2847  Tot=              4.7772
 Quadrupole moment (field-independent basis, Debye-Ang):
   XX=            -79.5006   YY=            -82.0762   ZZ=            -71.2430
   XY=              3.2631   XZ=              9.2573   YZ=             -9.8934

 Normal termination of Gaussian 09 at Wed Feb 19 13:07:01 2020.
