 Gaussian 09, Revision A.02,
 Gaussian 09:  EM64L-G09RevA.02 11-Jun-2009

 ----------------------------------------------
 #P opt=(,maxcycle=400) HF/6-31G* MaxDisk=100GB
 ----------------------------------------------

 -------------------------------------------------------------------
 ModifiedRes Rotatable Bond Optimization on g2-node38.bme.utexas.edu
 -------------------------------------------------------------------
 Symbolic Z-matrix:
 Charge =  0 Multiplicity = 1

 SCF Done:  E(RHF) =  -903.996147592     A.U. after   16 cycles
 SCF Done:  E(RHF) =  -904.011857195     A.U. after   16 cycles
 SCF Done:  E(RHF) =  -904.010549238     A.U. after   14 cycles
 SCF Done:  E(RHF) =  -904.013682893     A.U. after   14 cycles
 SCF Done:  E(RHF) =  -904.013173102     A.U. after   13 cycles
 SCF Done:  E(RHF) =  -904.013800388     A.U. after   13 cycles
 SCF Done:  E(RHF) =  -904.013783790     A.U. after   13 cycles
 SCF Done:  E(RHF) =  -904.013886345     A.U. after   12 cycles
 SCF Done:  E(RHF) =  -904.013906209     A.U. after   11 cycles
 SCF Done:  E(RHF) =  -904.013912171     A.U. after   11 cycles
 SCF Done:  E(RHF) =  -904.013913647     A.U. after   11 cycles
 SCF Done:  E(RHF) =  -904.013914413     A.U. after   10 cycles
 SCF Done:  E(RHF) =  -904.013914610     A.U. after    8 cycles
 SCF Done:  E(RHF) =  -904.013914721     A.U. after    9 cycles
 SCF Done:  E(RHF) =  -904.013914801     A.U. after    9 cycles
 Optimization completed.
    -- Stationary point found.

                         Standard orientation:
 ---------------------------------------------------------------------
 Center     Atomic      Atomic             Coordinates (Angstroms)
 Number     Number       Type             X           Y           Z
 ---------------------------------------------------------------------
      1          6           0       -0.822533    2.108468    0.151399
      2          8           0       -1.587881    2.281053   -0.755975
      3          7           0       -0.310716    0.912071    0.498344
      4          1           0        0.264576    0.862757    1.309975
      5          6           0       -0.571298   -0.295307   -0.263849
      6          1           0       -0.706590    0.006219   -1.293572
      7          6           0       -1.860768   -0.979214    0.220505
      8          8           0       -1.830414   -2.008459    0.836650
      9          1           0        0.768324   -1.589234    0.854612
     10          1           0        0.342922   -2.177351   -0.721159
     11          6           0        0.586204   -1.284263   -0.164268
     12         16           0        2.151832   -0.695120   -0.908159
     13          6           0        2.756519    0.251697    0.376773
     14          7           0        3.159918    0.881845    1.233985
     15          7           0       -2.990240   -0.333867   -0.114552
     16          1           0       -0.475349    2.922831    0.782949
     17          1           0       -2.966769    0.567456   -0.540564
     18          1           0       -3.851560   -0.680144    0.245109
 ---------------------------------------------------------------------

 The electronic state is 1-A.
 Alpha  occ. eigenvalues --  -92.01533 -20.56118 -20.54465 -15.62384 -15.59760
 Alpha  occ. eigenvalues --  -15.59212 -11.37663 -11.36826 -11.31557 -11.31114
 Alpha  occ. eigenvalues --  -11.30686  -9.02435  -6.70743  -6.70547  -6.70351
 Alpha  occ. eigenvalues --   -1.42550  -1.41136  -1.27858  -1.25265  -1.22717
 Alpha  occ. eigenvalues --   -1.12304  -1.03229  -0.91697  -0.86305  -0.81120
 Alpha  occ. eigenvalues --   -0.76715  -0.75224  -0.71336  -0.69133  -0.67524
 Alpha  occ. eigenvalues --   -0.63660  -0.63431  -0.60079  -0.59475  -0.58288
 Alpha  occ. eigenvalues --   -0.57132  -0.56452  -0.53929  -0.53145  -0.47095
 Alpha  occ. eigenvalues --   -0.46726  -0.45575  -0.42389  -0.41374  -0.39097
 Alpha virt. eigenvalues --    0.12164   0.16242   0.18116   0.19358   0.20565
 Alpha virt. eigenvalues --    0.21747   0.22688   0.24327   0.25126   0.27292
 Alpha virt. eigenvalues --    0.29340   0.29546   0.32326   0.33666   0.37092

 Mulliken atomic charges:
              1
     1  C    0.520621
     2  O   -0.587272
     3  N   -0.771002
     4  H    0.413981
     5  C   -0.064865
     6  H    0.249140
     7  C    0.771593
     8  O   -0.603473
     9  H    0.253970
    10  H    0.251841
    11  C   -0.520991
    12  S    0.295773
    13  C    0.098955
    14  N   -0.398026
    15  N   -0.936862
    16  H    0.186956
    17  H    0.441647
    18  H    0.398013
 Sum of Mulliken atomic charges =   0.00000

 Dipole moment (field-independent basis, Debye):
    X=             -1.4463    Y=             -0.2242    Z=             -0.6284  Tot=              1.5927
 Quadrupole moment (field-independent basis, Debye-Ang):
   XX=            -76.6701   YY=            -78.6941   ZZ=            -73.3662
   XY=             -4.9504   XZ=             -5.2630   YZ=              7.7267

 Normal termination of Gaussian 09 at Wed Feb 19 13:00:18 2020.
