 Gaussian 09, Revision A.02,
 Gaussian 09:  EM64L-G09RevA.02 11-Jun-2009

 ----------------------------------------------------------------------
 #P MP2/6-311++G** SP SCF=(qc,maxcycle=800) Guess=Indo MaxDisk=100GB Po
 p=NBORead
 ----------------------------------------------------------------------

 ---------------------------------------------------------------------
 ModifiedRes Rotatable Bond SP Calculation on g2-node38.bme.utexas.edu
 ---------------------------------------------------------------------
 Symbolic Z-matrix:
 Charge =  0 Multiplicity = 1

                         Standard orientation:
 ---------------------------------------------------------------------
 Center     Atomic      Atomic             Coordinates (Angstroms)
 Number     Number       Type             X           Y           Z
 ---------------------------------------------------------------------
      1          6           0       -1.978473    1.897519    0.340199
      2          8           0       -2.545860    1.959932   -0.749420
      3          7           0       -1.042677    0.951446    0.646858
      4          1           0       -0.693703    0.938880    1.601091
      5          6           0       -0.632059   -0.135598   -0.263256
      6          1           0       -0.711035    0.269459   -1.281906
      7          6           0       -1.581763   -1.352806   -0.140914
      8          8           0       -1.842844   -2.005995   -1.149278
      9          1           0        0.893968   -0.987485    1.037229
     10          1           0        1.088144   -1.363270   -0.687321
     11          6           0        0.807696   -0.583503    0.026160
     12         16           0        1.987406    0.825851   -0.159982
     13          6           0        3.444888   -0.035682   -0.005957
     14          7           0        4.445185   -0.652580    0.144219
     15          7           0       -2.088179   -1.657282    1.087295
     16          1           0       -2.185413    2.607245    1.157300
     17          1           0       -1.930414   -1.088246    1.908925
     18          1           0       -2.712449   -2.452346    1.127988
 ---------------------------------------------------------------------

 SCF Done:  E(RHF) =  -904.151868506     a.u. after   12 cycles
 E2 =    -0.1756025200D+01 EUMP2 =    -0.90590789370522D+03

 The electronic state is 1-A.
 Alpha  occ. eigenvalues --  -92.03625 -20.55623 -20.54877 -15.63494 -15.61981
 Alpha  occ. eigenvalues --  -15.60717 -11.39020 -11.38865 -11.33890 -11.32703
 Alpha  occ. eigenvalues --  -11.32200  -9.03748  -6.71998  -6.71820  -6.71661
 Alpha  occ. eigenvalues --   -1.41049  -1.40314  -1.28102  -1.23757  -1.23415
 Alpha  occ. eigenvalues --   -1.13008  -1.04248  -0.92134  -0.86792  -0.82942
 Alpha  occ. eigenvalues --   -0.78201  -0.75476  -0.71773  -0.70035  -0.66852
 Alpha  occ. eigenvalues --   -0.64072  -0.63562  -0.62900  -0.59631  -0.58570
 Alpha  occ. eigenvalues --   -0.57204  -0.56261  -0.54183  -0.52596  -0.47705
 Alpha  occ. eigenvalues --   -0.46494  -0.46041  -0.44064  -0.42216  -0.39782
 Alpha virt. eigenvalues --    0.01375   0.03808   0.04685   0.05546   0.06803
 Alpha virt. eigenvalues --    0.07188   0.07787   0.08276   0.09553   0.09946
 Alpha virt. eigenvalues --    0.11083   0.11819   0.12530   0.12700   0.13291

 Mulliken atomic charges:
              1
     1  C    0.275631
     2  O   -0.389882
     3  N   -0.140545
     4  H    0.314925
     5  C   -0.806732
     6  H    0.305803
     7  C    0.269685
     8  O   -0.358019
     9  H    0.190030
    10  H    0.229994
    11  C   -0.122016
    12  S    0.235237
    13  C   -0.111662
    14  N   -0.201600
    15  N   -0.460393
    16  H    0.139956
    17  H    0.254345
    18  H    0.375240
 Sum of Mulliken atomic charges =   0.00000

 Dipole moment (field-independent basis, Debye):
    X=             -1.8756    Y=              0.8504    Z=              6.5605  Tot=              6.8762
 Quadrupole moment (field-independent basis, Debye-Ang):
   XX=           -101.1282   YY=            -75.9385   ZZ=            -69.5273
   XY=              7.2517   XZ=            -16.7074   YZ=             -0.7427

 Normal termination of Gaussian 09 at Wed Feb 19 12:54:18 2020.
