 Gaussian 09, Revision A.02,
 Gaussian 09:  EM64L-G09RevA.02 11-Jun-2009

 ----------------------------------------------------------------------
 #P MP2/6-311++G** SP SCF=(qc,maxcycle=800) Guess=Indo MaxDisk=100GB Po
 p=NBORead
 ----------------------------------------------------------------------

 ---------------------------------------------------------------------
 ModifiedRes Rotatable Bond SP Calculation on g2-node38.bme.utexas.edu
 ---------------------------------------------------------------------
 Symbolic Z-matrix:
 Charge =  0 Multiplicity = 1

                         Standard orientation:
 ---------------------------------------------------------------------
 Center     Atomic      Atomic             Coordinates (Angstroms)
 Number     Number       Type             X           Y           Z
 ---------------------------------------------------------------------
      1          6           0        1.988368   -1.816177    0.448869
      2          8           0        2.685372   -1.742639   -0.569626
      3          7           0        0.988495   -0.929073    0.724114
      4          1           0        0.603129   -0.923830    1.664366
      5          6           0        0.611360    0.155816   -0.199247
      6          1           0        0.728259   -0.242947   -1.217310
      7          6           0        1.555984    1.362097   -0.013591
      8          8           0        1.164625    2.346660    0.615618
      9          1           0       -0.956940    1.039697    1.019550
     10          1           0       -1.118827    1.322588   -0.729912
     11          6           0       -0.852182    0.585884    0.030839
     12         16           0       -2.012485   -0.845213   -0.109389
     13          6           0       -3.493441   -0.008147   -0.125291
     14          7           0       -4.539178    0.550153   -0.138686
     15          7           0        2.786166    1.242143   -0.578220
     16          1           0        2.139289   -2.587420    1.220456
     17          1           0        3.059805    0.352350   -0.987847
     18          1           0        3.436151    2.011393   -0.486939
 ---------------------------------------------------------------------

 SCF Done:  E(RHF) =  -904.161603371     a.u. after   11 cycles
 E2 =    -0.1755768668D+01 EUMP2 =    -0.90591737203845D+03

 The electronic state is 1-A.
 Alpha  occ. eigenvalues --  -92.02936 -20.56737 -20.54732 -15.63945 -15.60483
 Alpha  occ. eigenvalues --  -15.60149 -11.39921 -11.38605 -11.33755 -11.31667
 Alpha  occ. eigenvalues --  -11.31480  -9.03064  -6.71321  -6.71140  -6.70986
 Alpha  occ. eigenvalues --   -1.41919  -1.40261  -1.28064  -1.23144  -1.22772
 Alpha  occ. eigenvalues --   -1.12117  -1.03804  -0.91721  -0.87402  -0.81497
 Alpha  occ. eigenvalues --   -0.76767  -0.75859  -0.71741  -0.70207  -0.67770
 Alpha  occ. eigenvalues --   -0.64370  -0.62688  -0.62292  -0.59064  -0.58117
 Alpha  occ. eigenvalues --   -0.56976  -0.56655  -0.53355  -0.51929  -0.47967
 Alpha  occ. eigenvalues --   -0.47085  -0.45849  -0.43317  -0.42639  -0.39141
 Alpha virt. eigenvalues --    0.02702   0.04111   0.05171   0.05450   0.07119
 Alpha virt. eigenvalues --    0.07511   0.08543   0.08709   0.09528   0.10671
 Alpha virt. eigenvalues --    0.10813   0.11731   0.12548   0.12862   0.12960

 Mulliken atomic charges:
              1
     1  C    0.294234
     2  O   -0.457477
     3  N   -0.122142
     4  H    0.334589
     5  C   -0.410564
     6  H    0.268072
     7  C    0.285241
     8  O   -0.402986
     9  H    0.257267
    10  H    0.234619
    11  C   -0.451047
    12  S    0.130170
    13  C   -0.115485
    14  N   -0.196171
    15  N   -0.497940
    16  H    0.162092
    17  H    0.322121
    18  H    0.365406
 Sum of Mulliken atomic charges =   0.00000

 Dipole moment (field-independent basis, Debye):
    X=              4.1392    Y=             -2.4216    Z=              1.2207  Tot=              4.9484
 Quadrupole moment (field-independent basis, Debye-Ang):
   XX=            -94.1003   YY=            -79.4748   ZZ=            -69.0960
   XY=              7.1518   XZ=              1.5859   YZ=            -10.1297

 Normal termination of Gaussian 09 at Wed Feb 19 12:59:06 2020.
