 Gaussian 09, Revision A.02,
 Gaussian 09:  EM64L-G09RevA.02 11-Jun-2009

 ----------------------------------------------
 #P opt=(,maxcycle=400) HF/6-31G* MaxDisk=100GB
 ----------------------------------------------

 -------------------------------------------------------------------
 ModifiedRes Rotatable Bond Optimization on g2-node38.bme.utexas.edu
 -------------------------------------------------------------------
 Symbolic Z-matrix:
 Charge =  0 Multiplicity = 1

 SCF Done:  E(RHF) =  -903.994821867     A.U. after   16 cycles
 SCF Done:  E(RHF) =  -904.008511263     A.U. after   13 cycles
 SCF Done:  E(RHF) =  -904.008304614     A.U. after   17 cycles
 SCF Done:  E(RHF) =  -904.009956986     A.U. after   17 cycles
 SCF Done:  E(RHF) =  -904.010920756     A.U. after   16 cycles
 SCF Done:  E(RHF) =  -904.011285346     A.U. after   17 cycles
 SCF Done:  E(RHF) =  -904.011655040     A.U. after   14 cycles
 SCF Done:  E(RHF) =  -904.011795804     A.U. after   13 cycles
 SCF Done:  E(RHF) =  -904.011927119     A.U. after   13 cycles
 SCF Done:  E(RHF) =  -904.011976496     A.U. after   12 cycles
 SCF Done:  E(RHF) =  -904.012001278     A.U. after   13 cycles
 SCF Done:  E(RHF) =  -904.012015150     A.U. after   12 cycles
 SCF Done:  E(RHF) =  -904.012023287     A.U. after   11 cycles
 SCF Done:  E(RHF) =  -904.012024830     A.U. after   11 cycles
 SCF Done:  E(RHF) =  -904.012025890     A.U. after   10 cycles
 SCF Done:  E(RHF) =  -904.012026127     A.U. after    9 cycles
 Optimization completed.
    -- Stationary point found.

                         Standard orientation:
 ---------------------------------------------------------------------
 Center     Atomic      Atomic             Coordinates (Angstroms)
 Number     Number       Type             X           Y           Z
 ---------------------------------------------------------------------
      1          6           0        1.232132    1.926638   -0.825194
      2          8           0        1.568886    2.329064    0.251994
      3          7           0        0.711955    0.705498   -1.055449
      4          1           0        0.526771    0.438327   -1.996166
      5          6           0        0.433913   -0.236345    0.013382
      6          1           0        0.158263    0.341395    0.884874
      7          6           0        1.693894   -1.057890    0.334437
      8          8           0        1.820920   -2.185201   -0.057005
      9          1           0       -0.439396   -1.764772   -1.240014
     10          1           0       -0.851859   -1.901336    0.441656
     11          6           0       -0.693978   -1.194130   -0.357398
     12         16           0       -2.287969   -0.399268   -0.764175
     13          6           0       -2.664299    0.296557    0.747998
     14          7           0       -2.928310    0.767251    1.749083
     15          7           0        2.608565   -0.406715    1.072003
     16          1           0        1.324958    2.529907   -1.725985
     17          1           0        2.526495    0.572058    1.244925
     18          1           0        3.488379   -0.849414    1.218791
 ---------------------------------------------------------------------

 The electronic state is 1-A.
 Alpha  occ. eigenvalues --  -92.01319 -20.56208 -20.54434 -15.62625 -15.59239
 Alpha  occ. eigenvalues --  -15.59193 -11.37824 -11.36814 -11.31509 -11.30579
 Alpha  occ. eigenvalues --  -11.30340  -9.02223  -6.70535  -6.70339  -6.70141
 Alpha  occ. eigenvalues --   -1.42672  -1.41120  -1.27939  -1.24610  -1.22735
 Alpha  occ. eigenvalues --   -1.12236  -1.03037  -0.91642  -0.86472  -0.81125
 Alpha  occ. eigenvalues --   -0.76782  -0.75105  -0.70868  -0.70107  -0.66464
 Alpha  occ. eigenvalues --   -0.63585  -0.62643  -0.61847  -0.59556  -0.57609
 Alpha  occ. eigenvalues --   -0.56979  -0.55494  -0.53821  -0.52752  -0.46785
 Alpha  occ. eigenvalues --   -0.46529  -0.45731  -0.42438  -0.40963  -0.39143
 Alpha virt. eigenvalues --    0.12458   0.16572   0.18347   0.19273   0.20451
 Alpha virt. eigenvalues --    0.21506   0.22782   0.23870   0.24871   0.27222
 Alpha virt. eigenvalues --    0.29132   0.29874   0.32482   0.34210   0.37840

 Mulliken atomic charges:
              1
     1  C    0.523374
     2  O   -0.580403
     3  N   -0.758013
     4  H    0.399545
     5  C   -0.077287
     6  H    0.259633
     7  C    0.772011
     8  O   -0.604928
     9  H    0.243628
    10  H    0.257270
    11  C   -0.519427
    12  S    0.283032
    13  C    0.093549
    14  N   -0.376966
    15  N   -0.930909
    16  H    0.178135
    17  H    0.440652
    18  H    0.397105
 Sum of Mulliken atomic charges =   0.00000

 Dipole moment (field-independent basis, Debye):
    X=              1.8556    Y=             -0.2871    Z=             -4.0649  Tot=              4.4777
 Quadrupole moment (field-independent basis, Debye-Ang):
   XX=            -75.3018   YY=            -82.7227   ZZ=            -68.4667
   XY=              6.2157   XZ=              7.0696   YZ=             -7.7311

 Normal termination of Gaussian 09 at Wed Feb 19 13:05:40 2020.
