 Gaussian 09, Revision A.02,
 Gaussian 09:  EM64L-G09RevA.02 11-Jun-2009

 ----------------------------------------------
 #P opt=(,maxcycle=400) HF/6-31G* MaxDisk=100GB
 ----------------------------------------------

 -------------------------------------------------------------------
 ModifiedRes Rotatable Bond Optimization on g2-node38.bme.utexas.edu
 -------------------------------------------------------------------
 Symbolic Z-matrix:
 Charge =  0 Multiplicity = 1

 SCF Done:  E(RHF) =  -903.988834102     A.U. after   16 cycles
 SCF Done:  E(RHF) =  -904.004206398     A.U. after   14 cycles
 SCF Done:  E(RHF) =  -904.006373165     A.U. after   14 cycles
 SCF Done:  E(RHF) =  -904.007224270     A.U. after   15 cycles
 SCF Done:  E(RHF) =  -904.008381112     A.U. after   13 cycles
 SCF Done:  E(RHF) =  -904.008707081     A.U. after   17 cycles
 SCF Done:  E(RHF) =  -904.008795534     A.U. after   13 cycles
 SCF Done:  E(RHF) =  -904.008841834     A.U. after   13 cycles
 SCF Done:  E(RHF) =  -904.009036385     A.U. after   13 cycles
 SCF Done:  E(RHF) =  -904.009672161     A.U. after   15 cycles
 SCF Done:  E(RHF) =  -904.010141870     A.U. after   14 cycles
 SCF Done:  E(RHF) =  -904.007668848     A.U. after   15 cycles
 SCF Done:  E(RHF) =  -904.011109859     A.U. after   15 cycles
 SCF Done:  E(RHF) =  -904.011404280     A.U. after   13 cycles
 SCF Done:  E(RHF) =  -904.011462026     A.U. after   13 cycles
 SCF Done:  E(RHF) =  -904.011474202     A.U. after   12 cycles
 SCF Done:  E(RHF) =  -904.011480162     A.U. after   11 cycles
 SCF Done:  E(RHF) =  -904.011481231     A.U. after   11 cycles
 SCF Done:  E(RHF) =  -904.011481444     A.U. after    9 cycles
 SCF Done:  E(RHF) =  -904.011481498     A.U. after    9 cycles
 Optimization completed.
    -- Stationary point found.

                         Standard orientation:
 ---------------------------------------------------------------------
 Center     Atomic      Atomic             Coordinates (Angstroms)
 Number     Number       Type             X           Y           Z
 ---------------------------------------------------------------------
      1          6           0        1.915829   -1.808362    0.474622
      2          8           0        2.539486   -1.848247   -0.547482
      3          7           0        0.972324   -0.886681    0.757422
      4          1           0        0.596218   -0.860695    1.679758
      5          6           0        0.605015    0.165413   -0.176318
      6          1           0        0.716434   -0.245251   -1.170461
      7          6           0        1.544290    1.374022   -0.029397
      8          8           0        1.191769    2.376782    0.524800
      9          1           0       -0.966715    1.028637    1.031133
     10          1           0       -1.092760    1.371983   -0.678580
     11          6           0       -0.834783    0.613922    0.043975
     12         16           0       -1.956597   -0.821385   -0.177087
     13          6           0       -3.448627    0.002177   -0.102204
     14          7           0       -4.456105    0.527290   -0.053702
     15          7           0        2.762589    1.196208   -0.568410
     16          1           0        2.060183   -2.532884    1.273184
     17          1           0        3.054102    0.306040   -0.909755
     18          1           0        3.446049    1.905309   -0.421670
 ---------------------------------------------------------------------

 The electronic state is 1-A.
 Alpha  occ. eigenvalues --  -92.01091 -20.56944 -20.54874 -15.63318 -15.59692
 Alpha  occ. eigenvalues --  -15.58908 -11.38515 -11.37293 -11.32195 -11.30402
 Alpha  occ. eigenvalues --  -11.30072  -9.01999  -6.70308  -6.70118  -6.69914
 Alpha  occ. eigenvalues --   -1.43378  -1.41615  -1.28587  -1.24299  -1.23198
 Alpha  occ. eigenvalues --   -1.12246  -1.03304  -0.91357  -0.87053  -0.81769
 Alpha  occ. eigenvalues --   -0.76976  -0.75842  -0.71460  -0.69979  -0.67176
 Alpha  occ. eigenvalues --   -0.64517  -0.62831  -0.62088  -0.58995  -0.58402
 Alpha  occ. eigenvalues --   -0.57103  -0.56109  -0.53407  -0.52339  -0.47401
 Alpha  occ. eigenvalues --   -0.46509  -0.46144  -0.42872  -0.41763  -0.38697
 Alpha virt. eigenvalues --    0.12892   0.15868   0.17632   0.19442   0.20875
 Alpha virt. eigenvalues --    0.21182   0.22431   0.23470   0.24300   0.27396
 Alpha virt. eigenvalues --    0.28397   0.29670   0.32299   0.34511   0.37788

 Mulliken atomic charges:
              1
     1  C    0.521809
     2  O   -0.579180
     3  N   -0.768363
     4  H    0.406901
     5  C   -0.100308
     6  H    0.253897
     7  C    0.775355
     8  O   -0.596751
     9  H    0.246122
    10  H    0.252374
    11  C   -0.492856
    12  S    0.286020
    13  C    0.084630
    14  N   -0.376526
    15  N   -0.934192
    16  H    0.182737
    17  H    0.438964
    18  H    0.399369
 Sum of Mulliken atomic charges =   0.00000

 Dipole moment (field-independent basis, Debye):
    X=              4.1266    Y=             -2.0501    Z=              1.5061  Tot=              4.8477
 Quadrupole moment (field-independent basis, Debye-Ang):
   XX=            -89.2706   YY=            -79.2361   ZZ=            -67.5919
   XY=              6.4309   XZ=              2.5762   YZ=             -8.6423

 Normal termination of Gaussian 09 at Wed Feb 19 12:48:01 2020.
