 Gaussian 09, Revision A.02,
 Gaussian 09:  EM64L-G09RevA.02 11-Jun-2009

 ----------------------------------------------------------------------
 #P MP2/6-311++G** SP SCF=(qc,maxcycle=800) Guess=Indo MaxDisk=100GB Po
 p=NBORead
 ----------------------------------------------------------------------

 ---------------------------------------------------------------------
 ModifiedRes Rotatable Bond SP Calculation on g2-node38.bme.utexas.edu
 ---------------------------------------------------------------------
 Symbolic Z-matrix:
 Charge =  0 Multiplicity = 1

                         Standard orientation:
 ---------------------------------------------------------------------
 Center     Atomic      Atomic             Coordinates (Angstroms)
 Number     Number       Type             X           Y           Z
 ---------------------------------------------------------------------
      1          6           0       -2.947731   -0.953391   -0.265328
      2          8           0       -3.083529   -0.853313    0.959322
      3          7           0       -1.771324   -0.689009   -0.904136
      4          1           0       -1.792957   -0.570305   -1.912456
      5          6           0       -0.545981   -0.325348   -0.169947
      6          1           0       -0.561231   -0.865566    0.788224
      7          6           0       -0.548731    1.193657    0.114042
      8          8           0        0.077721    1.963585   -0.612439
      9          1           0        0.913367   -1.819546   -0.777528
     10          1           0        0.458455   -0.668564   -2.057946
     11          6           0        0.691469   -0.773326   -0.996264
     12         16           0        2.253316    0.177834   -0.720249
     13          6           0        2.735595   -0.577794    0.723482
     14          7           0        3.025105   -1.095604    1.748936
     15          7           0       -1.301361    1.582778    1.176625
     16          1           0       -3.775474   -1.236009   -0.934780
     17          1           0       -1.888396    0.897123    1.644936
     18          1           0       -1.335012    2.565403    1.412571
 ---------------------------------------------------------------------

 SCF Done:  E(RHF) =  -904.151086698     a.u. after   11 cycles
 E2 =    -0.1759212572D+01 EUMP2 =    -0.90591029926990D+03

 The electronic state is 1-A.
 Alpha  occ. eigenvalues --  -92.01819 -20.56387 -20.53960 -15.63764 -15.59798
 Alpha  occ. eigenvalues --  -15.59137 -11.39575 -11.37779 -11.33061 -11.31667
 Alpha  occ. eigenvalues --  -11.30769  -9.01933  -6.70162  -6.69980  -6.69829
 Alpha  occ. eigenvalues --   -1.41521  -1.39802  -1.27668  -1.22487  -1.22089
 Alpha  occ. eigenvalues --   -1.11535  -1.02766  -0.91965  -0.86781  -0.81128
 Alpha  occ. eigenvalues --   -0.76807  -0.74936  -0.71187  -0.69209  -0.67239
 Alpha  occ. eigenvalues --   -0.63738  -0.62436  -0.62081  -0.58074  -0.57647
 Alpha  occ. eigenvalues --   -0.56531  -0.56227  -0.52938  -0.51404  -0.47409
 Alpha  occ. eigenvalues --   -0.47017  -0.44799  -0.42977  -0.42418  -0.37171
 Alpha virt. eigenvalues --    0.02251   0.04511   0.04906   0.05463   0.07190
 Alpha virt. eigenvalues --    0.07934   0.08182   0.08880   0.09714   0.10746
 Alpha virt. eigenvalues --    0.11626   0.11899   0.12599   0.12773   0.13490

 Mulliken atomic charges:
              1
     1  C    0.307573
     2  O   -0.451034
     3  N   -0.100662
     4  H    0.333555
     5  C   -0.412767
     6  H    0.329982
     7  C   -0.024160
     8  O   -0.346334
     9  H    0.230280
    10  H    0.198030
    11  C   -0.592710
    12  S    0.787002
    13  C   -0.451202
    14  N   -0.175067
    15  N   -0.446245
    16  H    0.154795
    17  H    0.315089
    18  H    0.343873
 Sum of Mulliken atomic charges =   0.00000

 Dipole moment (field-independent basis, Debye):
    X=             -4.1538    Y=             -0.8749    Z=             -4.4377  Tot=              6.1411
 Quadrupole moment (field-independent basis, Debye-Ang):
   XX=            -80.6480   YY=            -75.6159   ZZ=            -72.4721
   XY=              1.0788   XZ=              0.9458   YZ=             13.0149

 Normal termination of Gaussian 09 at Wed Feb 19 12:42:02 2020.
