 Gaussian 09, Revision A.02,
 Gaussian 09:  EM64L-G09RevA.02 11-Jun-2009

 ----------------------------------------------
 #P opt=(,maxcycle=400) HF/6-31G* MaxDisk=100GB
 ----------------------------------------------

 -------------------------------------------------------------------
 ModifiedRes Rotatable Bond Optimization on g2-node38.bme.utexas.edu
 -------------------------------------------------------------------
 Symbolic Z-matrix:
 Charge =  0 Multiplicity = 1

 SCF Done:  E(RHF) =  -903.982122815     A.U. after   16 cycles
 SCF Done:  E(RHF) =  -903.997898198     A.U. after   15 cycles
 SCF Done:  E(RHF) =  -904.000893869     A.U. after   13 cycles
 SCF Done:  E(RHF) =  -904.002952314     A.U. after   17 cycles
 SCF Done:  E(RHF) =  -904.004799309     A.U. after   17 cycles
 SCF Done:  E(RHF) =  -904.006888233     A.U. after   13 cycles
 SCF Done:  E(RHF) =  -904.008060148     A.U. after   14 cycles
 SCF Done:  E(RHF) =  -904.007741948     A.U. after   15 cycles
 SCF Done:  E(RHF) =  -904.008575022     A.U. after   13 cycles
 SCF Done:  E(RHF) =  -904.008664199     A.U. after   13 cycles
 SCF Done:  E(RHF) =  -904.010915889     A.U. after   13 cycles
 SCF Done:  E(RHF) =  -904.010855018     A.U. after   13 cycles
 SCF Done:  E(RHF) =  -904.011265202     A.U. after   14 cycles
 SCF Done:  E(RHF) =  -904.011443150     A.U. after   13 cycles
 SCF Done:  E(RHF) =  -904.011468456     A.U. after   12 cycles
 SCF Done:  E(RHF) =  -904.011473540     A.U. after   11 cycles
 SCF Done:  E(RHF) =  -904.011476679     A.U. after   11 cycles
 SCF Done:  E(RHF) =  -904.011480390     A.U. after   11 cycles
 SCF Done:  E(RHF) =  -904.011481299     A.U. after   10 cycles
 SCF Done:  E(RHF) =  -904.011481492     A.U. after    9 cycles
 Optimization completed.
    -- Stationary point found.

                         Standard orientation:
 ---------------------------------------------------------------------
 Center     Atomic      Atomic             Coordinates (Angstroms)
 Number     Number       Type             X           Y           Z
 ---------------------------------------------------------------------
      1          6           0        1.915517   -1.808585    0.474715
      2          8           0        2.538916   -1.848824   -0.547527
      3          7           0        0.972689   -0.886322    0.757765
      4          1           0        0.596034   -0.860687    1.679880
      5          6           0        0.605115    0.165515   -0.176094
      6          1           0        0.716422   -0.245293   -1.170200
      7          6           0        1.544266    1.374175   -0.029534
      8          8           0        1.191456    2.377334    0.523767
      9          1           0       -0.966608    1.027914    1.031944
     10          1           0       -1.092660    1.372507   -0.677491
     11          6           0       -0.834665    0.613909    0.044481
     12         16           0       -1.956432   -0.821300   -0.177622
     13          6           0       -3.448526    0.002062   -0.102127
     14          7           0       -4.455988    0.527158   -0.053216
     15          7           0        2.762811    1.195976   -0.567816
     16          1           0        2.059610   -2.533178    1.273259
     17          1           0        3.054276    0.305880   -0.909384
     18          1           0        3.446043    1.905428   -0.421756
 ---------------------------------------------------------------------

 The electronic state is 1-A.
 Alpha  occ. eigenvalues --  -92.01091 -20.56942 -20.54873 -15.63317 -15.59692
 Alpha  occ. eigenvalues --  -15.58909 -11.38513 -11.37292 -11.32194 -11.30403
 Alpha  occ. eigenvalues --  -11.30073  -9.02000  -6.70309  -6.70119  -6.69915
 Alpha  occ. eigenvalues --   -1.43376  -1.41614  -1.28588  -1.24300  -1.23198
 Alpha  occ. eigenvalues --   -1.12246  -1.03305  -0.91359  -0.87053  -0.81770
 Alpha  occ. eigenvalues --   -0.76976  -0.75842  -0.71461  -0.69981  -0.67175
 Alpha  occ. eigenvalues --   -0.64516  -0.62832  -0.62084  -0.58995  -0.58405
 Alpha  occ. eigenvalues --   -0.57102  -0.56109  -0.53407  -0.52340  -0.47400
 Alpha  occ. eigenvalues --   -0.46509  -0.46143  -0.42870  -0.41763  -0.38698
 Alpha virt. eigenvalues --    0.12891   0.15869   0.17635   0.19442   0.20874
 Alpha virt. eigenvalues --    0.21180   0.22431   0.23471   0.24298   0.27397
 Alpha virt. eigenvalues --    0.28399   0.29668   0.32295   0.34509   0.37789

 Mulliken atomic charges:
              1
     1  C    0.521827
     2  O   -0.579193
     3  N   -0.768355
     4  H    0.406901
     5  C   -0.100363
     6  H    0.253909
     7  C    0.775468
     8  O   -0.596782
     9  H    0.246058
    10  H    0.252425
    11  C   -0.492813
    12  S    0.285969
    13  C    0.084638
    14  N   -0.376512
    15  N   -0.934252
    16  H    0.182723
    17  H    0.438956
    18  H    0.399395
 Sum of Mulliken atomic charges =   0.00000

 Dipole moment (field-independent basis, Debye):
    X=              4.1257    Y=             -2.0499    Z=              1.5062  Tot=              4.8469
 Quadrupole moment (field-independent basis, Debye-Ang):
   XX=            -89.2679   YY=            -79.2409   ZZ=            -67.5879
   XY=              6.4354   XZ=              2.5737   YZ=             -8.6427

 Normal termination of Gaussian 09 at Wed Feb 19 12:44:21 2020.
