 Gaussian 09, Revision A.02,
 Gaussian 09:  EM64L-G09RevA.02 11-Jun-2009

 ----------------------------------------------------------------------
 #P MP2/6-311++G** SP SCF=(qc,maxcycle=800) Guess=Indo MaxDisk=100GB Po
 p=NBORead
 ----------------------------------------------------------------------

 ---------------------------------------------------------------------
 ModifiedRes Rotatable Bond SP Calculation on g2-node38.bme.utexas.edu
 ---------------------------------------------------------------------
 Symbolic Z-matrix:
 Charge =  0 Multiplicity = 1

                         Standard orientation:
 ---------------------------------------------------------------------
 Center     Atomic      Atomic             Coordinates (Angstroms)
 Number     Number       Type             X           Y           Z
 ---------------------------------------------------------------------
      1          6           0       -1.087949    2.307484    0.472886
      2          8           0       -0.587782    2.746994   -0.565278
      3          7           0       -1.183068    0.972528    0.736684
      4          1           0       -1.664636    0.702792    1.590287
      5          6           0       -0.878877   -0.080894   -0.250451
      6          1           0       -0.905267    0.368647   -1.251410
      7          6           0       -2.000472   -1.157635   -0.137230
      8          8           0       -3.165951   -0.766545   -0.156228
      9          1           0        0.571705   -1.067692    1.033583
     10          1           0        0.668714   -1.558636   -0.670810
     11          6           0        0.503173   -0.715199    0.001199
     12         16           0        1.846573    0.523327   -0.294399
     13          6           0        3.173182   -0.478854    0.064164
     14          7           0        4.073845   -1.190537    0.358380
     15          7           0       -1.705322   -2.482615   -0.018067
     16          1           0       -1.476884    2.960330    1.270127
     17          1           0       -0.766563   -2.854135    0.034942
     18          1           0       -2.494903   -3.113166    0.033328
 ---------------------------------------------------------------------

 SCF Done:  E(RHF) =  -904.148511918     a.u. after   11 cycles
 E2 =    -0.1757050583D+01 EUMP2 =    -0.90590556250108D+03

 The electronic state is 1-A.
 Alpha  occ. eigenvalues --  -92.02730 -20.55339 -20.54721 -15.62790 -15.62425
 Alpha  occ. eigenvalues --  -15.60049 -11.39992 -11.38045 -11.34240 -11.32195
 Alpha  occ. eigenvalues --  -11.31576  -9.02832  -6.71067  -6.70887  -6.70721
 Alpha  occ. eigenvalues --   -1.41625  -1.39754  -1.26563  -1.24829  -1.22842
 Alpha  occ. eigenvalues --   -1.12352  -1.03708  -0.92060  -0.86028  -0.82890
 Alpha  occ. eigenvalues --   -0.78973  -0.74727  -0.70458  -0.70322  -0.67898
 Alpha  occ. eigenvalues --   -0.64244  -0.62248  -0.62094  -0.60690  -0.58391
 Alpha  occ. eigenvalues --   -0.57216  -0.55669  -0.53684  -0.52015  -0.47271
 Alpha  occ. eigenvalues --   -0.45567  -0.44909  -0.44527  -0.42430  -0.39077
 Alpha virt. eigenvalues --    0.02197   0.03659   0.05220   0.05391   0.06370
 Alpha virt. eigenvalues --    0.07330   0.08017   0.09383   0.09942   0.11004
 Alpha virt. eigenvalues --    0.11281   0.11831   0.12631   0.12817   0.12989

 Mulliken atomic charges:
              1
     1  C    0.209402
     2  O   -0.420805
     3  N   -0.214604
     4  H    0.353345
     5  C    0.374481
     6  H    0.343725
     7  C   -0.158849
     8  O   -0.390604
     9  H    0.258805
    10  H    0.131421
    11  C   -0.560457
    12  S    0.118391
    13  C   -0.130344
    14  N   -0.217428
    15  N   -0.510543
    16  H    0.146344
    17  H    0.296196
    18  H    0.371525
 Sum of Mulliken atomic charges =   0.00000

 Dipole moment (field-independent basis, Debye):
    X=             -2.7104    Y=             -3.4241    Z=              2.5300  Tot=              5.0470
 Quadrupole moment (field-independent basis, Debye-Ang):
   XX=           -102.7339   YY=            -69.1386   ZZ=            -69.5566
   XY=              7.4541   XZ=             -7.4157   YZ=              7.9864

 Normal termination of Gaussian 09 at Wed Feb 19 12:54:07 2020.
