 Gaussian 09, Revision A.02,
 Gaussian 09:  EM64L-G09RevA.02 11-Jun-2009

 ----------------------------------------------
 #P opt=(,maxcycle=400) HF/6-31G* MaxDisk=100GB
 ----------------------------------------------

 -------------------------------------------------------------------
 ModifiedRes Rotatable Bond Optimization on g2-node38.bme.utexas.edu
 -------------------------------------------------------------------
 Symbolic Z-matrix:
 Charge =  0 Multiplicity = 1

 SCF Done:  E(RHF) =  -903.993508557     A.U. after   16 cycles
 SCF Done:  E(RHF) =  -904.008610084     A.U. after   15 cycles
 SCF Done:  E(RHF) =  -904.010899156     A.U. after   14 cycles
 SCF Done:  E(RHF) =  -904.012459756     A.U. after   17 cycles
 SCF Done:  E(RHF) =  -904.012810376     A.U. after   15 cycles
 SCF Done:  E(RHF) =  -904.013136954     A.U. after   14 cycles
 SCF Done:  E(RHF) =  -904.013500917     A.U. after   13 cycles
 SCF Done:  E(RHF) =  -904.013441941     A.U. after   13 cycles
 SCF Done:  E(RHF) =  -904.013591350     A.U. after   13 cycles
 SCF Done:  E(RHF) =  -904.013605674     A.U. after   12 cycles
 SCF Done:  E(RHF) =  -904.013624305     A.U. after   12 cycles
 SCF Done:  E(RHF) =  -904.013634631     A.U. after   11 cycles
 SCF Done:  E(RHF) =  -904.013637643     A.U. after   11 cycles
 SCF Done:  E(RHF) =  -904.013638214     A.U. after   10 cycles
 SCF Done:  E(RHF) =  -904.013638327     A.U. after    9 cycles
 SCF Done:  E(RHF) =  -904.013638346     A.U. after    8 cycles
 Optimization completed.
    -- Stationary point found.

                         Standard orientation:
 ---------------------------------------------------------------------
 Center     Atomic      Atomic             Coordinates (Angstroms)
 Number     Number       Type             X           Y           Z
 ---------------------------------------------------------------------
      1          6           0        1.736669    1.953224   -0.365831
      2          8           0        2.751052    1.827280    0.262285
      3          7           0        0.683725    1.118583   -0.289471
      4          1           0       -0.058441    1.228386   -0.944969
      5          6           0        0.655210   -0.023306    0.603205
      6          1           0        1.235292    0.249021    1.476773
      7          6           0        1.301032   -1.270939   -0.015814
      8          8           0        0.654277   -2.265185   -0.211210
      9          1           0       -0.738698   -1.179588    1.744526
     10          1           0       -1.171137    0.517836    1.597871
     11          6           0       -0.760426   -0.333236    1.076853
     12         16           0       -1.912990   -0.776573   -0.288503
     13          6           0       -3.012900    0.527788   -0.150620
     14          7           0       -3.747849    1.394213   -0.090171
     15          7           0        2.607555   -1.158310   -0.292052
     16          1           0        1.583420    2.774205   -1.062907
     17          1           0        3.118939   -0.327251   -0.088251
     18          1           0        3.074309   -1.936775   -0.700499
 ---------------------------------------------------------------------

 The electronic state is 1-A.
 Alpha  occ. eigenvalues --  -92.00887 -20.56492 -20.55081 -15.62679 -15.59759
 Alpha  occ. eigenvalues --  -15.58732 -11.38089 -11.37287 -11.31852 -11.30460
 Alpha  occ. eigenvalues --  -11.29875  -9.01707  -6.69987  -6.69798  -6.69607
 Alpha  occ. eigenvalues --   -1.42943  -1.41662  -1.28166  -1.24221  -1.23246
 Alpha  occ. eigenvalues --   -1.11854  -1.03075  -0.91571  -0.86700  -0.81412
 Alpha  occ. eigenvalues --   -0.77454  -0.75567  -0.71205  -0.69782  -0.66924
 Alpha  occ. eigenvalues --   -0.64078  -0.63061  -0.60507  -0.59495  -0.58657
 Alpha  occ. eigenvalues --   -0.57502  -0.55686  -0.52797  -0.52568  -0.47579
 Alpha  occ. eigenvalues --   -0.46025  -0.45694  -0.42895  -0.41552  -0.38587
 Alpha virt. eigenvalues --    0.13441   0.15899   0.18658   0.19699   0.20244
 Alpha virt. eigenvalues --    0.22228   0.23090   0.23825   0.24875   0.27934
 Alpha virt. eigenvalues --    0.28427   0.30354   0.32403   0.34270   0.36974

 Mulliken atomic charges:
              1
     1  C    0.519788
     2  O   -0.587883
     3  N   -0.765662
     4  H    0.419883
     5  C   -0.081400
     6  H    0.251357
     7  C    0.780349
     8  O   -0.607517
     9  H    0.251949
    10  H    0.248117
    11  C   -0.501458
    12  S    0.307930
    13  C    0.066404
    14  N   -0.391711
    15  N   -0.938492
    16  H    0.183900
    17  H    0.442437
    18  H    0.402009
 Sum of Mulliken atomic charges =   0.00000

 Dipole moment (field-independent basis, Debye):
    X=              3.1442    Y=              0.2678    Z=             -0.0475  Tot=              3.1559
 Quadrupole moment (field-independent basis, Debye-Ang):
   XX=            -87.0061   YY=            -79.3835   ZZ=            -65.8427
   XY=              0.1861   XZ=             -4.6200   YZ=             -4.7051

 Normal termination of Gaussian 09 at Wed Feb 19 12:35:00 2020.
