 Gaussian 09, Revision A.02,
 Gaussian 09:  EM64L-G09RevA.02 11-Jun-2009

 ----------------------------------------------
 #P opt=(,maxcycle=400) HF/6-31G* MaxDisk=100GB
 ----------------------------------------------

 -------------------------------------------------------------------
 ModifiedRes Rotatable Bond Optimization on g2-node38.bme.utexas.edu
 -------------------------------------------------------------------
 Symbolic Z-matrix:
 Charge =  0 Multiplicity = 1

 SCF Done:  E(RHF) =  -903.978269874     A.U. after   16 cycles
 SCF Done:  E(RHF) =  -903.993181247     A.U. after   14 cycles
 SCF Done:  E(RHF) =  -903.995624951     A.U. after   14 cycles
 SCF Done:  E(RHF) =  -903.997233818     A.U. after   17 cycles
 SCF Done:  E(RHF) =  -903.998434622     A.U. after   14 cycles
 SCF Done:  E(RHF) =  -904.000423103     A.U. after   15 cycles
 SCF Done:  E(RHF) =  -904.004136277     A.U. after   17 cycles
 SCF Done:  E(RHF) =  -904.006255184     A.U. after   13 cycles
 SCF Done:  E(RHF) =  -904.007418490     A.U. after   14 cycles
 SCF Done:  E(RHF) =  -904.008564223     A.U. after   15 cycles
 SCF Done:  E(RHF) =  -904.008836891     A.U. after   14 cycles
 SCF Done:  E(RHF) =  -904.009017584     A.U. after   14 cycles
 SCF Done:  E(RHF) =  -904.009236661     A.U. after   13 cycles
 SCF Done:  E(RHF) =  -904.009268297     A.U. after   12 cycles
 SCF Done:  E(RHF) =  -904.009275100     A.U. after   12 cycles
 SCF Done:  E(RHF) =  -904.009277864     A.U. after   11 cycles
 SCF Done:  E(RHF) =  -904.009278552     A.U. after   10 cycles
 SCF Done:  E(RHF) =  -904.009278636     A.U. after    8 cycles
 SCF Done:  E(RHF) =  -904.009278666     A.U. after    8 cycles
 SCF Done:  E(RHF) =  -904.009278687     A.U. after    8 cycles
 Optimization completed.
    -- Stationary point found.

                         Standard orientation:
 ---------------------------------------------------------------------
 Center     Atomic      Atomic             Coordinates (Angstroms)
 Number     Number       Type             X           Y           Z
 ---------------------------------------------------------------------
      1          6           0        1.065949    2.325714   -0.321946
      2          8           0        0.632575    2.686546    0.732570
      3          7           0        1.166067    1.036004   -0.707968
      4          1           0        1.631758    0.805772   -1.558956
      5          6           0        0.879923   -0.057032    0.183121
      6          1           0        0.906781    0.319692    1.196539
      7          6           0        1.952667   -1.130185   -0.020832
      8          8           0        2.478597   -1.274344   -1.088036
      9          1           0       -0.547710   -0.997313   -1.131541
     10          1           0       -0.609524   -1.590617    0.524260
     11          6           0       -0.484048   -0.711230   -0.091510
     12         16           0       -1.847627    0.454688    0.288608
     13          6           0       -3.143877   -0.577778   -0.123996
     14          7           0       -4.018471   -1.253916   -0.391748
     15          7           0        2.203418   -1.914818    1.044539
     16          1           0        1.417325    3.022800   -1.080501
     17          1           0        1.884562   -1.688038    1.958040
     18          1           0        2.908683   -2.612742    0.955383
 ---------------------------------------------------------------------

 The electronic state is 1-A.
 Alpha  occ. eigenvalues --  -92.00520 -20.56330 -20.55046 -15.61962 -15.61159
 Alpha  occ. eigenvalues --  -15.58440 -11.38819 -11.36708 -11.32118 -11.30433
 Alpha  occ. eigenvalues --  -11.29587  -9.01387  -6.69680  -6.69497  -6.69279
 Alpha  occ. eigenvalues --   -1.43399  -1.41398  -1.27014  -1.25235  -1.23863
 Alpha  occ. eigenvalues --   -1.11753  -1.03079  -0.91161  -0.86297  -0.82134
 Alpha  occ. eigenvalues --   -0.78959  -0.74201  -0.70702  -0.68770  -0.67267
 Alpha  occ. eigenvalues --   -0.65487  -0.63384  -0.62338  -0.59431  -0.58383
 Alpha  occ. eigenvalues --   -0.56091  -0.55463  -0.53055  -0.51870  -0.47184
 Alpha  occ. eigenvalues --   -0.45320  -0.44851  -0.44469  -0.41479  -0.38232
 Alpha virt. eigenvalues --    0.12322   0.17779   0.18372   0.19056   0.20910
 Alpha virt. eigenvalues --    0.21863   0.23135   0.23338   0.24529   0.25576
 Alpha virt. eigenvalues --    0.28790   0.29322   0.31107   0.35714   0.38038

 Mulliken atomic charges:
              1
     1  C    0.518547
     2  O   -0.567243
     3  N   -0.764965
     4  H    0.422591
     5  C   -0.084086
     6  H    0.247349
     7  C    0.760562
     8  O   -0.597694
     9  H    0.243131
    10  H    0.230543
    11  C   -0.491986
    12  S    0.324577
    13  C    0.075014
    14  N   -0.385033
    15  N   -0.914515
    16  H    0.172993
    17  H    0.401095
    18  H    0.409119
 Sum of Mulliken atomic charges =   0.00000

 Dipole moment (field-independent basis, Debye):
    X=              4.9163    Y=             -1.3237    Z=              1.2912  Tot=              5.2526
 Quadrupole moment (field-independent basis, Debye-Ang):
   XX=            -87.6153   YY=            -74.8944   ZZ=            -68.1018
   XY=             -6.8771   XZ=              3.7604   YZ=            -14.4514

 Normal termination of Gaussian 09 at Wed Feb 19 12:50:38 2020.
