 Gaussian 09, Revision A.02,
 Gaussian 09:  EM64L-G09RevA.02 11-Jun-2009

 ----------------------------------------------------------------------
 #P MP2/6-311++G** SP SCF=(qc,maxcycle=800) Guess=Indo MaxDisk=100GB Po
 p=NBORead
 ----------------------------------------------------------------------

 ---------------------------------------------------------------------
 ModifiedRes Rotatable Bond SP Calculation on g2-node38.bme.utexas.edu
 ---------------------------------------------------------------------
 Symbolic Z-matrix:
 Charge =  0 Multiplicity = 1

                         Standard orientation:
 ---------------------------------------------------------------------
 Center     Atomic      Atomic             Coordinates (Angstroms)
 Number     Number       Type             X           Y           Z
 ---------------------------------------------------------------------
      1          6           0        0.980759    1.893150   -1.015962
      2          8           0        1.383357    2.375119    0.048665
      3          7           0        0.558439    0.600723   -1.126687
      4          1           0        0.354999    0.236816   -2.053004
      5          6           0        0.411449   -0.285426    0.040587
      6          1           0        0.115626    0.339186    0.895999
      7          6           0        1.764878   -0.951920    0.359908
      8          8           0        1.956828   -2.122382    0.024064
      9          1           0       -0.371794   -1.982363   -1.068921
     10          1           0       -0.692401   -2.008223    0.678227
     11          6           0       -0.662764   -1.373389   -0.209144
     12         16           0       -2.331419   -0.675367   -0.579018
     13          6           0       -2.505134    0.429871    0.703895
     14          7           0       -2.618149    1.168812    1.623730
     15          7           0        2.668213   -0.168634    1.005674
     16          1           0        0.959548    2.463318   -1.957947
     17          1           0        2.450426    0.814525    1.150520
     18          1           0        3.570191   -0.559315    1.242850
 ---------------------------------------------------------------------

 SCF Done:  E(RHF) =  -904.161473723     a.u. after   12 cycles
 E2 =    -0.1758507391D+01 EUMP2 =    -0.90591998111433D+03

 The electronic state is 1-A.
 Alpha  occ. eigenvalues --  -92.03143 -20.55693 -20.54224 -15.63048 -15.60487
 Alpha  occ. eigenvalues --  -15.59918 -11.38955 -11.37985 -11.32824 -11.31939
 Alpha  occ. eigenvalues --  -11.31724  -9.03260  -6.71519  -6.71332  -6.71184
 Alpha  occ. eigenvalues --   -1.40952  -1.39688  -1.27147  -1.23170  -1.22562
 Alpha  occ. eigenvalues --   -1.12023  -1.03213  -0.92014  -0.86576  -0.80822
 Alpha  occ. eigenvalues --   -0.76412  -0.74950  -0.70807  -0.70309  -0.66862
 Alpha  occ. eigenvalues --   -0.63308  -0.63002  -0.61644  -0.59034  -0.57881
 Alpha  occ. eigenvalues --   -0.56624  -0.55479  -0.54021  -0.52391  -0.47021
 Alpha  occ. eigenvalues --   -0.46298  -0.46071  -0.42792  -0.41754  -0.39508
 Alpha virt. eigenvalues --    0.02827   0.04541   0.04711   0.05972   0.06955
 Alpha virt. eigenvalues --    0.07821   0.08519   0.09285   0.09890   0.10446
 Alpha virt. eigenvalues --    0.10758   0.12045   0.12676   0.12798   0.13069

 Mulliken atomic charges:
              1
     1  C    0.266721
     2  O   -0.457551
     3  N   -0.176458
     4  H    0.348343
     5  C   -0.264776
     6  H    0.282979
     7  C    0.346623
     8  O   -0.417927
     9  H    0.267196
    10  H    0.244464
    11  C   -0.627523
    12  S    0.160212
    13  C   -0.134317
    14  N   -0.186075
    15  N   -0.493638
    16  H    0.152732
    17  H    0.316162
    18  H    0.372834
 Sum of Mulliken atomic charges =   0.00000

 Dipole moment (field-independent basis, Debye):
    X=              0.9859    Y=             -1.0730    Z=             -3.8345  Tot=              4.1021
 Quadrupole moment (field-independent basis, Debye-Ang):
   XX=            -76.4397   YY=            -86.0939   ZZ=            -67.3456
   XY=              8.5494   XZ=              7.6397   YZ=             -7.9362

 Normal termination of Gaussian 09 at Wed Feb 19 13:05:59 2020.
