 Gaussian 09, Revision A.02,
 Gaussian 09:  EM64L-G09RevA.02 11-Jun-2009

 ----------------------------------------------------------------------
 #P MP2/6-311++G** SP SCF=(qc,maxcycle=800) Guess=Indo MaxDisk=100GB Po
 p=NBORead
 ----------------------------------------------------------------------

 ---------------------------------------------------------------------
 ModifiedRes Rotatable Bond SP Calculation on g2-node38.bme.utexas.edu
 ---------------------------------------------------------------------
 Symbolic Z-matrix:
 Charge =  0 Multiplicity = 1

                         Standard orientation:
 ---------------------------------------------------------------------
 Center     Atomic      Atomic             Coordinates (Angstroms)
 Number     Number       Type             X           Y           Z
 ---------------------------------------------------------------------
      1          6           0        1.946341   -1.844416    0.377537
      2          8           0        2.713900   -1.745016   -0.586358
      3          7           0        0.950243   -0.944517    0.621920
      4          1           0        0.485399   -0.982417    1.524970
      5          6           0        0.638858    0.168755   -0.292924
      6          1           0        0.848374   -0.190116   -1.311340
      7          6           0        1.552433    1.372719    0.022292
      8          8           0        1.093274    2.348096    0.619922
      9          1           0       -0.974390    1.291899    0.634880
     10          1           0       -1.134055    1.070442   -1.127219
     11          6           0       -0.848874    0.584947   -0.191471
     12         16           0       -2.003365   -0.835591    0.070950
     13          6           0       -3.489708   -0.025035   -0.094288
     14          7           0       -4.515524    0.550193   -0.243462
     15          7           0        2.839980    1.258882   -0.398028
     16          1           0        2.026742   -2.650680    1.123501
     17          1           0        3.152137    0.386529   -0.817762
     18          1           0        3.475054    2.025444   -0.220625
 ---------------------------------------------------------------------

 SCF Done:  E(RHF) =  -904.158181296     a.u. after   11 cycles
 E2 =    -0.1755930130D+01 EUMP2 =    -0.90591411142620D+03

 The electronic state is 1-A.
 Alpha  occ. eigenvalues --  -92.02975 -20.56710 -20.54839 -15.63948 -15.60565
 Alpha  occ. eigenvalues --  -15.60225 -11.39910 -11.38692 -11.33852 -11.31720
 Alpha  occ. eigenvalues --  -11.31233  -9.03103  -6.71361  -6.71180  -6.71027
 Alpha  occ. eigenvalues --   -1.41902  -1.40332  -1.28064  -1.23190  -1.22830
 Alpha  occ. eigenvalues --   -1.11898  -1.03916  -0.91689  -0.87361  -0.81505
 Alpha  occ. eigenvalues --   -0.76842  -0.75826  -0.71565  -0.70353  -0.67804
 Alpha  occ. eigenvalues --   -0.64253  -0.62964  -0.62426  -0.58955  -0.57923
 Alpha  occ. eigenvalues --   -0.56988  -0.56589  -0.53309  -0.51783  -0.47993
 Alpha  occ. eigenvalues --   -0.47076  -0.45887  -0.43344  -0.42654  -0.39202
 Alpha virt. eigenvalues --    0.02816   0.04046   0.05117   0.05612   0.07012
 Alpha virt. eigenvalues --    0.07566   0.08580   0.08679   0.09517   0.10477
 Alpha virt. eigenvalues --    0.11086   0.11494   0.12289   0.12889   0.13048

 Mulliken atomic charges:
              1
     1  C    0.291447
     2  O   -0.461257
     3  N   -0.160453
     4  H    0.338549
     5  C   -0.322688
     6  H    0.286751
     7  C    0.253662
     8  O   -0.415631
     9  H    0.254369
    10  H    0.216330
    11  C   -0.492304
    12  S    0.231239
    13  C   -0.170485
    14  N   -0.189727
    15  N   -0.507631
    16  H    0.162521
    17  H    0.322786
    18  H    0.362521
 Sum of Mulliken atomic charges =   0.00000

 Dipole moment (field-independent basis, Debye):
    X=              4.0861    Y=             -2.4308    Z=              1.0868  Tot=              4.8771
 Quadrupole moment (field-independent basis, Debye-Ang):
   XX=            -93.7968   YY=            -79.0125   ZZ=            -69.8167
   XY=              8.0455   XZ=              1.3227   YZ=             -9.8235

 Normal termination of Gaussian 09 at Wed Feb 19 12:47:47 2020.
