 Gaussian 09, Revision A.02,
 Gaussian 09:  EM64L-G09RevA.02 11-Jun-2009

 ----------------------------------------------
 #P opt=(,maxcycle=400) HF/6-31G* MaxDisk=100GB
 ----------------------------------------------

 -------------------------------------------------------------------
 ModifiedRes Rotatable Bond Optimization on g2-node38.bme.utexas.edu
 -------------------------------------------------------------------
 Symbolic Z-matrix:
 Charge =  0 Multiplicity = 1

 SCF Done:  E(RHF) =  -903.990813772     A.U. after   16 cycles
 SCF Done:  E(RHF) =  -904.005905205     A.U. after   13 cycles
 SCF Done:  E(RHF) =  -904.007627190     A.U. after   14 cycles
 SCF Done:  E(RHF) =  -904.007856869     A.U. after   15 cycles
 SCF Done:  E(RHF) =  -904.008720035     A.U. after   17 cycles
 SCF Done:  E(RHF) =  -904.008870857     A.U. after   13 cycles
 SCF Done:  E(RHF) =  -904.009055777     A.U. after   14 cycles
 SCF Done:  E(RHF) =  -904.009561763     A.U. after   15 cycles
 SCF Done:  E(RHF) =  -904.009900668     A.U. after   17 cycles
 SCF Done:  E(RHF) =  -904.006697045     A.U. after   17 cycles
 SCF Done:  E(RHF) =  -904.010114129     A.U. after   16 cycles
 SCF Done:  E(RHF) =  -904.010764073     A.U. after   15 cycles
 SCF Done:  E(RHF) =  -904.011317849     A.U. after   13 cycles
 SCF Done:  E(RHF) =  -904.011406960     A.U. after   14 cycles
 SCF Done:  E(RHF) =  -904.011471912     A.U. after   13 cycles
 SCF Done:  E(RHF) =  -904.011478181     A.U. after   12 cycles
 SCF Done:  E(RHF) =  -904.011479989     A.U. after   11 cycles
 SCF Done:  E(RHF) =  -904.011480687     A.U. after   10 cycles
 SCF Done:  E(RHF) =  -904.011481377     A.U. after   10 cycles
 SCF Done:  E(RHF) =  -904.011481506     A.U. after    9 cycles
 Optimization completed.
    -- Stationary point found.

                         Standard orientation:
 ---------------------------------------------------------------------
 Center     Atomic      Atomic             Coordinates (Angstroms)
 Number     Number       Type             X           Y           Z
 ---------------------------------------------------------------------
      1          6           0        1.915644   -1.808518    0.474522
      2          8           0        2.539387   -1.848322   -0.547531
      3          7           0        0.972486   -0.886582    0.757541
      4          1           0        0.595934   -0.860946    1.679699
      5          6           0        0.605101    0.165479   -0.176161
      6          1           0        0.716583   -0.245116   -1.170330
      7          6           0        1.544217    1.374174   -0.029506
      8          8           0        1.191011    2.377640    0.523028
      9          1           0       -0.966846    1.028218    1.031409
     10          1           0       -1.092687    1.372230   -0.678171
     11          6           0       -0.834759    0.613905    0.044108
     12         16           0       -1.956485   -0.821367   -0.177636
     13          6           0       -3.448561    0.002008   -0.101950
     14          7           0       -4.456049    0.527014   -0.052900
     15          7           0        2.763150    1.195692   -0.566681
     16          1           0        2.059738   -2.533259    1.272904
     17          1           0        3.054733    0.305624   -0.908185
     18          1           0        3.446153    1.905415   -0.420933
 ---------------------------------------------------------------------

 The electronic state is 1-A.
 Alpha  occ. eigenvalues --  -92.01091 -20.56944 -20.54871 -15.63318 -15.59691
 Alpha  occ. eigenvalues --  -15.58908 -11.38514 -11.37291 -11.32195 -11.30402
 Alpha  occ. eigenvalues --  -11.30072  -9.01999  -6.70308  -6.70118  -6.69914
 Alpha  occ. eigenvalues --   -1.43378  -1.41612  -1.28588  -1.24300  -1.23198
 Alpha  occ. eigenvalues --   -1.12245  -1.03305  -0.91358  -0.87054  -0.81771
 Alpha  occ. eigenvalues --   -0.76977  -0.75844  -0.71459  -0.69982  -0.67174
 Alpha  occ. eigenvalues --   -0.64517  -0.62830  -0.62083  -0.58996  -0.58407
 Alpha  occ. eigenvalues --   -0.57100  -0.56108  -0.53406  -0.52339  -0.47401
 Alpha  occ. eigenvalues --   -0.46509  -0.46143  -0.42867  -0.41763  -0.38698
 Alpha virt. eigenvalues --    0.12892   0.15868   0.17636   0.19443   0.20874
 Alpha virt. eigenvalues --    0.21183   0.22430   0.23471   0.24300   0.27396
 Alpha virt. eigenvalues --    0.28399   0.29670   0.32299   0.34511   0.37791

 Mulliken atomic charges:
              1
     1  C    0.521839
     2  O   -0.579213
     3  N   -0.768349
     4  H    0.406906
     5  C   -0.100359
     6  H    0.253887
     7  C    0.775469
     8  O   -0.596821
     9  H    0.246066
    10  H    0.252422
    11  C   -0.492796
    12  S    0.285966
    13  C    0.084639
    14  N   -0.376516
    15  N   -0.934312
    16  H    0.182738
    17  H    0.439025
    18  H    0.399409
 Sum of Mulliken atomic charges =   0.00000

 Dipole moment (field-independent basis, Debye):
    X=              4.1267    Y=             -2.0512    Z=              1.5062  Tot=              4.8482
 Quadrupole moment (field-independent basis, Debye-Ang):
   XX=            -89.2705   YY=            -79.2393   ZZ=            -67.5854
   XY=              6.4349   XZ=              2.5781   YZ=             -8.6402

 Normal termination of Gaussian 09 at Wed Feb 19 12:49:17 2020.
