 Gaussian 09, Revision A.02,
 Gaussian 09:  EM64L-G09RevA.02 11-Jun-2009

 ----------------------------------------------------------------------
 #P MP2/6-311++G** SP SCF=(qc,maxcycle=800) Guess=Indo MaxDisk=100GB Po
 p=NBORead
 ----------------------------------------------------------------------

 ---------------------------------------------------------------------
 ModifiedRes Rotatable Bond SP Calculation on g2-node38.bme.utexas.edu
 ---------------------------------------------------------------------
 Symbolic Z-matrix:
 Charge =  0 Multiplicity = 1

                         Standard orientation:
 ---------------------------------------------------------------------
 Center     Atomic      Atomic             Coordinates (Angstroms)
 Number     Number       Type             X           Y           Z
 ---------------------------------------------------------------------
      1          6           0        2.410909   -1.618238    0.549697
      2          8           0        2.882119   -1.545329   -0.591041
      3          7           0        1.339458   -0.875213    0.950162
      4          1           0        1.118668   -0.845837    1.941229
      5          6           0        0.600348    0.008291    0.032026
      6          1           0        0.631543   -0.464421   -0.960072
      7          6           0        1.293169    1.387075   -0.049195
      8          8           0        0.802631    2.355523    0.534075
      9          1           0       -1.025717   -0.266377    1.483397
     10          1           0       -1.131799    1.223416    0.537246
     11          6           0       -0.873048    0.161057    0.491736
     12         16           0       -2.000173   -0.669163   -0.708260
     13          6           0       -3.494353   -0.148912   -0.084292
     14          7           0       -4.526064    0.196688    0.386343
     15          7           0        2.434727    1.426835   -0.785851
     16          1           0        2.837304   -2.266626    1.331279
     17          1           0        2.812470    0.563096   -1.167690
     18          1           0        2.923294    2.307985   -0.871897
 ---------------------------------------------------------------------

 SCF Done:  E(RHF) =  -904.155986432     a.u. after   11 cycles
 E2 =    -0.1755756236D+01 EUMP2 =    -0.90591174266766D+03

 The electronic state is 1-A.
 Alpha  occ. eigenvalues --  -92.02759 -20.56679 -20.54747 -15.64009 -15.60481
 Alpha  occ. eigenvalues --  -15.60014 -11.39891 -11.38570 -11.33848 -11.31505
 Alpha  occ. eigenvalues --  -11.31114  -9.02895  -6.71153  -6.70967  -6.70812
 Alpha  occ. eigenvalues --   -1.41893  -1.40281  -1.27996  -1.23099  -1.22658
 Alpha  occ. eigenvalues --   -1.12109  -1.03482  -0.91800  -0.87333  -0.81698
 Alpha  occ. eigenvalues --   -0.76808  -0.75772  -0.72101  -0.70258  -0.67062
 Alpha  occ. eigenvalues --   -0.64683  -0.63339  -0.60364  -0.59281  -0.58614
 Alpha  occ. eigenvalues --   -0.57159  -0.56342  -0.53182  -0.51676  -0.47909
 Alpha  occ. eigenvalues --   -0.47308  -0.45567  -0.43305  -0.42514  -0.39014
 Alpha virt. eigenvalues --    0.02423   0.04258   0.05089   0.05634   0.07422
 Alpha virt. eigenvalues --    0.07811   0.08186   0.08595   0.09713   0.10331
 Alpha virt. eigenvalues --    0.10807   0.11625   0.12189   0.13074   0.13248

 Mulliken atomic charges:
              1
     1  C    0.289592
     2  O   -0.453653
     3  N   -0.165408
     4  H    0.333629
     5  C    0.104985
     6  H    0.306735
     7  C   -0.029167
     8  O   -0.422709
     9  H    0.148264
    10  H    0.292446
    11  C   -0.600637
    12  S    0.029857
    13  C   -0.001797
    14  N   -0.208454
    15  N   -0.456988
    16  H    0.160742
    17  H    0.315064
    18  H    0.357498
 Sum of Mulliken atomic charges =   0.00000

 Dipole moment (field-independent basis, Debye):
    X=              4.8018    Y=             -2.3166    Z=              1.4149  Tot=              5.5160
 Quadrupole moment (field-independent basis, Debye-Ang):
   XX=            -93.7381   YY=            -79.1147   ZZ=            -67.3746
   XY=              5.5209   XZ=              7.2261   YZ=            -10.2247

 Normal termination of Gaussian 09 at Wed Feb 19 12:41:40 2020.
