 Gaussian 09, Revision A.02,
 Gaussian 09:  EM64L-G09RevA.02 11-Jun-2009

 ----------------------------------------------
 #P opt=(,maxcycle=400) HF/6-31G* MaxDisk=100GB
 ----------------------------------------------

 -------------------------------------------------------------------
 ModifiedRes Rotatable Bond Optimization on g2-node38.bme.utexas.edu
 -------------------------------------------------------------------
 Symbolic Z-matrix:
 Charge =  0 Multiplicity = 1

 SCF Done:  E(RHF) =  -903.996132080     A.U. after   16 cycles
 SCF Done:  E(RHF) =  -904.010486278     A.U. after   14 cycles
 SCF Done:  E(RHF) =  -904.010289712     A.U. after   15 cycles
 SCF Done:  E(RHF) =  -904.011885380     A.U. after   13 cycles
 SCF Done:  E(RHF) =  -904.011902192     A.U. after   13 cycles
 SCF Done:  E(RHF) =  -904.011904376     A.U. after   13 cycles
 SCF Done:  E(RHF) =  -904.011979625     A.U. after   12 cycles
 SCF Done:  E(RHF) =  -904.012004947     A.U. after   12 cycles
 SCF Done:  E(RHF) =  -904.012020499     A.U. after   12 cycles
 SCF Done:  E(RHF) =  -904.012022890     A.U. after   11 cycles
 SCF Done:  E(RHF) =  -904.012026076     A.U. after   11 cycles
 SCF Done:  E(RHF) =  -904.012026174     A.U. after    9 cycles
 Optimization completed.
    -- Stationary point found.

                         Standard orientation:
 ---------------------------------------------------------------------
 Center     Atomic      Atomic             Coordinates (Angstroms)
 Number     Number       Type             X           Y           Z
 ---------------------------------------------------------------------
      1          6           0        1.231307    1.926684   -0.825493
      2          8           0        1.567854    2.329428    0.251634
      3          7           0        0.711523    0.705356   -1.055557
      4          1           0        0.526884    0.437769   -1.996259
      5          6           0        0.433922   -0.236477    0.013361
      6          1           0        0.158276    0.341344    0.884790
      7          6           0        1.694138   -1.057683    0.334483
      8          8           0        1.821070   -2.185345   -0.055987
      9          1           0       -0.439325   -1.765403   -1.239579
     10          1           0       -0.851547   -1.901594    0.442122
     11          6           0       -0.693887   -1.194534   -0.357100
     12         16           0       -2.287987   -0.400030   -0.763863
     13          6           0       -2.663820    0.296758    0.747998
     14          7           0       -2.927465    0.768058    1.748891
     15          7           0        2.609168   -0.405812    1.070905
     16          1           0        1.324132    2.529777   -1.726400
     17          1           0        2.526646    0.572818    1.244315
     18          1           0        3.488789   -0.848603    1.218483
 ---------------------------------------------------------------------

 The electronic state is 1-A.
 Alpha  occ. eigenvalues --  -92.01318 -20.56206 -20.54432 -15.62624 -15.59238
 Alpha  occ. eigenvalues --  -15.59193 -11.37822 -11.36813 -11.31508 -11.30578
 Alpha  occ. eigenvalues --  -11.30339  -9.02222  -6.70534  -6.70338  -6.70141
 Alpha  occ. eigenvalues --   -1.42671  -1.41119  -1.27939  -1.24610  -1.22734
 Alpha  occ. eigenvalues --   -1.12235  -1.03036  -0.91641  -0.86471  -0.81127
 Alpha  occ. eigenvalues --   -0.76783  -0.75107  -0.70866  -0.70105  -0.66464
 Alpha  occ. eigenvalues --   -0.63584  -0.62644  -0.61844  -0.59555  -0.57611
 Alpha  occ. eigenvalues --   -0.56977  -0.55493  -0.53821  -0.52751  -0.46785
 Alpha  occ. eigenvalues --   -0.46529  -0.45729  -0.42435  -0.40962  -0.39142
 Alpha virt. eigenvalues --    0.12460   0.16572   0.18351   0.19276   0.20450
 Alpha virt. eigenvalues --    0.21505   0.22783   0.23870   0.24870   0.27223
 Alpha virt. eigenvalues --    0.29133   0.29873   0.32482   0.34212   0.37841

 Mulliken atomic charges:
              1
     1  C    0.523386
     2  O   -0.580406
     3  N   -0.757990
     4  H    0.399536
     5  C   -0.077349
     6  H    0.259635
     7  C    0.772079
     8  O   -0.604966
     9  H    0.243601
    10  H    0.257265
    11  C   -0.519389
    12  S    0.283070
    13  C    0.093548
    14  N   -0.376975
    15  N   -0.930999
    16  H    0.178129
    17  H    0.440678
    18  H    0.397146
 Sum of Mulliken atomic charges =   0.00000

 Dipole moment (field-independent basis, Debye):
    X=              1.8559    Y=             -0.2892    Z=             -4.0638  Tot=              4.4768
 Quadrupole moment (field-independent basis, Debye-Ang):
   XX=            -75.2951   YY=            -82.7303   ZZ=            -68.4568
   XY=              6.2207   XZ=              7.0701   YZ=             -7.7273

 Normal termination of Gaussian 09 at Wed Feb 19 12:56:51 2020.
