 Gaussian 09, Revision A.02,
 Gaussian 09:  EM64L-G09RevA.02 11-Jun-2009

 ----------------------------------------------
 #P opt=(,maxcycle=400) HF/6-31G* MaxDisk=100GB
 ----------------------------------------------

 -------------------------------------------------------------------
 ModifiedRes Rotatable Bond Optimization on g2-node38.bme.utexas.edu
 -------------------------------------------------------------------
 Symbolic Z-matrix:
 Charge =  0 Multiplicity = 1

 SCF Done:  E(RHF) =  -903.978467556     A.U. after   16 cycles
 SCF Done:  E(RHF) =  -903.992993155     A.U. after   14 cycles
 SCF Done:  E(RHF) =  -903.995048437     A.U. after   14 cycles
 SCF Done:  E(RHF) =  -903.995860105     A.U. after   17 cycles
 SCF Done:  E(RHF) =  -903.996947987     A.U. after   13 cycles
 SCF Done:  E(RHF) =  -903.997491883     A.U. after   14 cycles
 SCF Done:  E(RHF) =  -903.997422653     A.U. after   15 cycles
 SCF Done:  E(RHF) =  -903.997805765     A.U. after   13 cycles
 SCF Done:  E(RHF) =  -903.997900684     A.U. after   14 cycles
 SCF Done:  E(RHF) =  -903.998155463     A.U. after   13 cycles
 SCF Done:  E(RHF) =  -903.998590775     A.U. after   12 cycles
 SCF Done:  E(RHF) =  -903.998820101     A.U. after   14 cycles
 SCF Done:  E(RHF) =  -903.998924760     A.U. after   13 cycles
 SCF Done:  E(RHF) =  -903.998985617     A.U. after   12 cycles
 SCF Done:  E(RHF) =  -903.998993483     A.U. after   12 cycles
 SCF Done:  E(RHF) =  -903.999000171     A.U. after   12 cycles
 SCF Done:  E(RHF) =  -903.999004187     A.U. after   12 cycles
 SCF Done:  E(RHF) =  -903.999004858     A.U. after   10 cycles
 SCF Done:  E(RHF) =  -903.999005032     A.U. after   10 cycles
 SCF Done:  E(RHF) =  -903.999005109     A.U. after    9 cycles
 Optimization completed.
    -- Stationary point found.

                         Standard orientation:
 ---------------------------------------------------------------------
 Center     Atomic      Atomic             Coordinates (Angstroms)
 Number     Number       Type             X           Y           Z
 ---------------------------------------------------------------------
      1          6           0       -0.964567    2.309188    0.488409
      2          8           0       -0.389448    2.724282   -0.470321
      3          7           0       -1.181056    0.994951    0.744169
      4          1           0       -1.782055    0.765418    1.503704
      5          6           0       -0.891551   -0.025443   -0.246715
      6          1           0       -0.912983    0.432345   -1.223033
      7          6           0       -2.003400   -1.078096   -0.254931
      8          8           0       -2.590774   -1.354770   -1.254313
      9          1           0        0.545604   -1.109202    0.970983
     10          1           0        0.560187   -1.536773   -0.737069
     11          6           0        0.461920   -0.720300   -0.034370
     12         16           0        1.860692    0.435676   -0.304314
     13          6           0        3.110895   -0.667715    0.069720
     14          7           0        3.950024   -1.392613    0.323234
     15          7           0       -2.297740   -1.640496    0.953799
     16          1           0       -1.363045    2.962325    1.263204
     17          1           0       -1.616653   -1.675118    1.678833
     18          1           0       -2.938741   -2.404601    0.928379
 ---------------------------------------------------------------------

 The electronic state is 1-A.
 Alpha  occ. eigenvalues --  -92.00708 -20.56519 -20.55900 -15.62340 -15.61908
 Alpha  occ. eigenvalues --  -15.58601 -11.38720 -11.37410 -11.32082 -11.30890
 Alpha  occ. eigenvalues --  -11.29718  -9.01550  -6.69836  -6.69657  -6.69433
 Alpha  occ. eigenvalues --   -1.43437  -1.42287  -1.28197  -1.24434  -1.24038
 Alpha  occ. eigenvalues --   -1.12118  -1.03252  -0.91611  -0.85255  -0.83622
 Alpha  occ. eigenvalues --   -0.78833  -0.74053  -0.71496  -0.69189  -0.66650
 Alpha  occ. eigenvalues --   -0.65704  -0.63799  -0.62144  -0.59484  -0.59156
 Alpha  occ. eigenvalues --   -0.56150  -0.55911  -0.53206  -0.52016  -0.47868
 Alpha  occ. eigenvalues --   -0.45588  -0.45367  -0.44806  -0.41819  -0.38412
 Alpha virt. eigenvalues --    0.12221   0.16105   0.17833   0.19198   0.20238
 Alpha virt. eigenvalues --    0.21661   0.21977   0.23715   0.24007   0.25609
 Alpha virt. eigenvalues --    0.27983   0.29817   0.31152   0.35409   0.36906

 Mulliken atomic charges:
              1
     1  C    0.519731
     2  O   -0.548796
     3  N   -0.778216
     4  H    0.402179
     5  C   -0.082073
     6  H    0.282425
     7  C    0.733105
     8  O   -0.555875
     9  H    0.208377
    10  H    0.244028
    11  C   -0.503464
    12  S    0.341540
    13  C    0.070792
    14  N   -0.387049
    15  N   -0.914291
    16  H    0.173024
    17  H    0.388795
    18  H    0.405767
 Sum of Mulliken atomic charges =   0.00000

 Dipole moment (field-independent basis, Debye):
    X=             -4.3854    Y=             -1.1541    Z=              4.9648  Tot=              6.7241
 Quadrupole moment (field-independent basis, Debye-Ang):
   XX=            -89.9041   YY=            -74.6158   ZZ=            -69.7612
   XY=              5.0186   XZ=            -12.9929   YZ=              0.8275

 Normal termination of Gaussian 09 at Wed Feb 19 12:48:34 2020.
