 Gaussian 09, Revision A.02,
 Gaussian 09:  EM64L-G09RevA.02 11-Jun-2009

 ----------------------------------------------------------------------
 #P MP2/6-311++G** SP SCF=(qc,maxcycle=800) Guess=Indo MaxDisk=100GB Po
 p=NBORead
 ----------------------------------------------------------------------

 ---------------------------------------------------------------------
 ModifiedRes Rotatable Bond SP Calculation on g2-node38.bme.utexas.edu
 ---------------------------------------------------------------------
 Symbolic Z-matrix:
 Charge =  0 Multiplicity = 1

                         Standard orientation:
 ---------------------------------------------------------------------
 Center     Atomic      Atomic             Coordinates (Angstroms)
 Number     Number       Type             X           Y           Z
 ---------------------------------------------------------------------
      1          6           0        1.979034   -1.855311    0.275771
      2          8           0        2.489197   -1.770695   -0.846931
      3          7           0        1.078501   -0.944346    0.745310
      4          1           0        0.841783   -0.970142    1.732978
      5          6           0        0.566417    0.165160   -0.076823
      6          1           0        0.522668   -0.193885   -1.115705
      7          6           0        1.532427    1.366282   -0.008628
      8          8           0        1.235293    2.348861    0.672779
      9          1           0       -0.813573    0.950829    1.413522
     10          1           0       -1.193295    1.391995   -0.266969
     11          6           0       -0.843132    0.588017    0.383585
     12         16           0       -2.031743   -0.823470    0.267151
     13          6           0       -3.396429   -0.010287   -0.344613
     14          7           0       -4.344696    0.579811   -0.741618
     15          7           0        2.677242    1.241149   -0.730238
     16          1           0        2.233346   -2.656047    0.987921
     17          1           0        2.874664    0.362533   -1.203000
     18          1           0        3.339136    2.005438   -0.719873
 ---------------------------------------------------------------------

 SCF Done:  E(RHF) =  -904.160885662     a.u. after   12 cycles
 E2 =    -0.1755923037D+01 EUMP2 =    -0.90591680869950D+03

 The electronic state is 1-A.
 Alpha  occ. eigenvalues --  -92.02922 -20.56667 -20.54652 -15.63987 -15.60415
 Alpha  occ. eigenvalues --  -15.60059 -11.39884 -11.38446 -11.33482 -11.31666
 Alpha  occ. eigenvalues --  -11.31523  -9.03051  -6.71309  -6.71126  -6.70979
 Alpha  occ. eigenvalues --   -1.41853  -1.40185  -1.28055  -1.23058  -1.22752
 Alpha  occ. eigenvalues --   -1.12113  -1.03675  -0.91795  -0.87371  -0.81496
 Alpha  occ. eigenvalues --   -0.76793  -0.75702  -0.71454  -0.70580  -0.67804
 Alpha  occ. eigenvalues --   -0.64208  -0.62665  -0.62054  -0.59127  -0.58083
 Alpha  occ. eigenvalues --   -0.56982  -0.56390  -0.53274  -0.52059  -0.47855
 Alpha  occ. eigenvalues --   -0.47071  -0.45863  -0.43223  -0.42572  -0.39144
 Alpha virt. eigenvalues --    0.02518   0.04246   0.04977   0.05620   0.07224
 Alpha virt. eigenvalues --    0.07538   0.08279   0.08682   0.09629   0.10672
 Alpha virt. eigenvalues --    0.10858   0.11365   0.12318   0.12899   0.13236

 Mulliken atomic charges:
              1
     1  C    0.286508
     2  O   -0.455724
     3  N   -0.142458
     4  H    0.343352
     5  C   -0.395147
     6  H    0.271332
     7  C    0.184935
     8  O   -0.407897
     9  H    0.270214
    10  H    0.216859
    11  C   -0.429689
    12  S    0.373317
    13  C   -0.275153
    14  N   -0.191704
    15  N   -0.494937
    16  H    0.158750
    17  H    0.322561
    18  H    0.364880
 Sum of Mulliken atomic charges =   0.00000

 Dipole moment (field-independent basis, Debye):
    X=              4.1042    Y=             -2.5153    Z=              2.3556  Tot=              5.3591
 Quadrupole moment (field-independent basis, Debye-Ang):
   XX=            -90.8895   YY=            -79.2798   ZZ=            -70.7458
   XY=              5.4735   XZ=             -2.2772   YZ=            -10.4935

 Normal termination of Gaussian 09 at Wed Feb 19 13:12:16 2020.
