 Gaussian 09, Revision A.02,
 Gaussian 09:  EM64L-G09RevA.02 11-Jun-2009

 ----------------------------------------------------------------------
 #P MP2/6-311++G** SP SCF=(qc,maxcycle=800) Guess=Indo MaxDisk=100GB Po
 p=NBORead
 ----------------------------------------------------------------------

 ---------------------------------------------------------------------
 ModifiedRes Rotatable Bond SP Calculation on g2-node38.bme.utexas.edu
 ---------------------------------------------------------------------
 Symbolic Z-matrix:
 Charge =  0 Multiplicity = 1

                         Standard orientation:
 ---------------------------------------------------------------------
 Center     Atomic      Atomic             Coordinates (Angstroms)
 Number     Number       Type             X           Y           Z
 ---------------------------------------------------------------------
      1          6           0        2.558552   -1.546969    0.484736
      2          8           0        2.967303   -1.414097   -0.674464
      3          7           0        1.436527   -0.920058    0.942200
      4          1           0        1.291329   -0.867053    1.946143
      5          6           0        0.612917   -0.072984    0.063098
      6          1           0        0.680598   -0.506748   -0.944998
      7          6           0        1.181320    1.359777    0.025149
      8          8           0        0.752446    2.204512    0.812442
      9          1           0       -0.976206   -0.837326    1.342182
     10          1           0       -1.112778    0.895505    0.977512
     11          6           0       -0.855276   -0.084112    0.562236
     12         16           0       -1.982114   -0.445829   -0.849350
     13          6           0       -3.473226   -0.219286   -0.064929
     14          7           0       -4.502036   -0.026091    0.491267
     15          7           0        2.164521    1.573501   -0.888590
     16          1           0        3.081967   -2.158050    1.236637
     17          1           0        2.583937    0.774931   -1.357421
     18          1           0        2.568181    2.498669   -0.950154
 ---------------------------------------------------------------------

 SCF Done:  E(RHF) =  -904.155829884     a.u. after   11 cycles
 E2 =    -0.1756004023D+01 EUMP2 =    -0.90591183390688D+03

 The electronic state is 1-A.
 Alpha  occ. eigenvalues --  -92.02801 -20.56552 -20.54800 -15.63823 -15.60734
 Alpha  occ. eigenvalues --  -15.59984 -11.39717 -11.38544 -11.33606 -11.31480
 Alpha  occ. eigenvalues --  -11.31020  -9.02935  -6.71193  -6.71007  -6.70850
 Alpha  occ. eigenvalues --   -1.41751  -1.40319  -1.27850  -1.23344  -1.22645
 Alpha  occ. eigenvalues --   -1.12115  -1.03377  -0.91803  -0.87194  -0.81684
 Alpha  occ. eigenvalues --   -0.76912  -0.75355  -0.72172  -0.70412  -0.66929
 Alpha  occ. eigenvalues --   -0.64790  -0.63143  -0.60707  -0.58920  -0.58211
 Alpha  occ. eigenvalues --   -0.57137  -0.56355  -0.53318  -0.51633  -0.47709
 Alpha  occ. eigenvalues --   -0.47277  -0.45538  -0.43554  -0.42475  -0.39002
 Alpha virt. eigenvalues --    0.02519   0.04213   0.05118   0.05614   0.07391
 Alpha virt. eigenvalues --    0.07475   0.08441   0.08656   0.09457   0.10211
 Alpha virt. eigenvalues --    0.11101   0.11651   0.12209   0.13113   0.13274

 Mulliken atomic charges:
              1
     1  C    0.293173
     2  O   -0.446457
     3  N   -0.175047
     4  H    0.335576
     5  C    0.194519
     6  H    0.337303
     7  C   -0.041246
     8  O   -0.425259
     9  H    0.194738
    10  H    0.271447
    11  C   -0.729383
    12  S    0.124594
    13  C   -0.119760
    14  N   -0.197660
    15  N   -0.431113
    16  H    0.158695
    17  H    0.307670
    18  H    0.348211
 Sum of Mulliken atomic charges =   0.00000

 Dipole moment (field-independent basis, Debye):
    X=              4.8486    Y=             -1.9897    Z=              0.8557  Tot=              5.3103
 Quadrupole moment (field-independent basis, Debye-Ang):
   XX=            -94.1689   YY=            -76.7144   ZZ=            -68.3315
   XY=              3.9385   XZ=              8.4943   YZ=            -11.4768

 Normal termination of Gaussian 09 at Wed Feb 19 12:43:47 2020.
