 Gaussian 09, Revision A.02,
 Gaussian 09:  EM64L-G09RevA.02 11-Jun-2009

 ----------------------------------------------
 #P opt=(,maxcycle=400) HF/6-31G* MaxDisk=100GB
 ----------------------------------------------

 -------------------------------------------------------------------
 ModifiedRes Rotatable Bond Optimization on g2-node38.bme.utexas.edu
 -------------------------------------------------------------------
 Symbolic Z-matrix:
 Charge =  0 Multiplicity = 1

 SCF Done:  E(RHF) =  -903.995574967     A.U. after   16 cycles
 SCF Done:  E(RHF) =  -904.009378631     A.U. after   17 cycles
 SCF Done:  E(RHF) =  -904.009940844     A.U. after   16 cycles
 SCF Done:  E(RHF) =  -904.011073929     A.U. after   15 cycles
 SCF Done:  E(RHF) =  -904.011360026     A.U. after   14 cycles
 SCF Done:  E(RHF) =  -904.011326370     A.U. after   13 cycles
 SCF Done:  E(RHF) =  -904.011454141     A.U. after   12 cycles
 SCF Done:  E(RHF) =  -904.011469280     A.U. after   12 cycles
 SCF Done:  E(RHF) =  -904.011477603     A.U. after   11 cycles
 SCF Done:  E(RHF) =  -904.011480899     A.U. after   11 cycles
 SCF Done:  E(RHF) =  -904.011480965     A.U. after   10 cycles
 SCF Done:  E(RHF) =  -904.011481453     A.U. after   10 cycles
 SCF Done:  E(RHF) =  -904.011481490     A.U. after    9 cycles
 Optimization completed.
    -- Stationary point found.

                         Standard orientation:
 ---------------------------------------------------------------------
 Center     Atomic      Atomic             Coordinates (Angstroms)
 Number     Number       Type             X           Y           Z
 ---------------------------------------------------------------------
      1          6           0        1.915309   -1.808842    0.474302
      2          8           0        2.538769   -1.848964   -0.547913
      3          7           0        0.972578   -0.886515    0.757490
      4          1           0        0.596176   -0.860869    1.679712
      5          6           0        0.605174    0.165644   -0.176079
      6          1           0        0.716559   -0.244876   -1.170311
      7          6           0        1.544219    1.374459   -0.029558
      8          8           0        1.190485    2.378509    0.521551
      9          1           0       -0.966661    1.028151    1.031786
     10          1           0       -1.092654    1.372448   -0.677704
     11          6           0       -0.834643    0.613984    0.044391
     12         16           0       -1.956286   -0.821339   -0.177472
     13          6           0       -3.448397    0.001972   -0.101934
     14          7           0       -4.455991    0.526824   -0.052991
     15          7           0        2.763718    1.195361   -0.565256
     16          1           0        2.059246   -2.533614    1.272700
     17          1           0        3.055301    0.305355   -0.906908
     18          1           0        3.446462    1.905480   -0.420267
 ---------------------------------------------------------------------

 The electronic state is 1-A.
 Alpha  occ. eigenvalues --  -92.01090 -20.56943 -20.54871 -15.63317 -15.59691
 Alpha  occ. eigenvalues --  -15.58907 -11.38514 -11.37292 -11.32195 -11.30401
 Alpha  occ. eigenvalues --  -11.30072  -9.01998  -6.70307  -6.70117  -6.69913
 Alpha  occ. eigenvalues --   -1.43376  -1.41612  -1.28588  -1.24299  -1.23197
 Alpha  occ. eigenvalues --   -1.12245  -1.03305  -0.91357  -0.87053  -0.81772
 Alpha  occ. eigenvalues --   -0.76977  -0.75845  -0.71456  -0.69985  -0.67174
 Alpha  occ. eigenvalues --   -0.64516  -0.62829  -0.62081  -0.58995  -0.58412
 Alpha  occ. eigenvalues --   -0.57097  -0.56108  -0.53406  -0.52338  -0.47402
 Alpha  occ. eigenvalues --   -0.46509  -0.46141  -0.42865  -0.41764  -0.38697
 Alpha virt. eigenvalues --    0.12893   0.15866   0.17639   0.19443   0.20875
 Alpha virt. eigenvalues --    0.21183   0.22428   0.23471   0.24299   0.27395
 Alpha virt. eigenvalues --    0.28399   0.29670   0.32295   0.34511   0.37793

 Mulliken atomic charges:
              1
     1  C    0.521839
     2  O   -0.579207
     3  N   -0.768359
     4  H    0.406888
     5  C   -0.100392
     6  H    0.253910
     7  C    0.775553
     8  O   -0.596815
     9  H    0.246012
    10  H    0.252455
    11  C   -0.492755
    12  S    0.285968
    13  C    0.084642
    14  N   -0.376527
    15  N   -0.934417
    16  H    0.182737
    17  H    0.439024
    18  H    0.399443
 Sum of Mulliken atomic charges =   0.00000

 Dipole moment (field-independent basis, Debye):
    X=              4.1286    Y=             -2.0502    Z=              1.5083  Tot=              4.8501
 Quadrupole moment (field-independent basis, Debye-Ang):
   XX=            -89.2663   YY=            -79.2464   ZZ=            -67.5810
   XY=              6.4392   XZ=              2.5778   YZ=             -8.6380

 Normal termination of Gaussian 09 at Wed Feb 19 12:53:18 2020.
