 Gaussian 09, Revision A.02,
 Gaussian 09:  EM64L-G09RevA.02 11-Jun-2009

 ----------------------------------------------
 #P opt=(,maxcycle=400) HF/6-31G* MaxDisk=100GB
 ----------------------------------------------

 -------------------------------------------------------------------
 ModifiedRes Rotatable Bond Optimization on g2-node38.bme.utexas.edu
 -------------------------------------------------------------------
 Symbolic Z-matrix:
 Charge =  0 Multiplicity = 1

 SCF Done:  E(RHF) =  -903.991720006     A.U. after   16 cycles
 SCF Done:  E(RHF) =  -904.007603541     A.U. after   15 cycles
 SCF Done:  E(RHF) =  -904.008858684     A.U. after   16 cycles
 SCF Done:  E(RHF) =  -904.011313580     A.U. after   17 cycles
 SCF Done:  E(RHF) =  -904.011574762     A.U. after   16 cycles
 SCF Done:  E(RHF) =  -904.011651853     A.U. after   13 cycles
 SCF Done:  E(RHF) =  -904.011784400     A.U. after   16 cycles
 SCF Done:  E(RHF) =  -904.012007559     A.U. after   14 cycles
 SCF Done:  E(RHF) =  -904.012012785     A.U. after   12 cycles
 SCF Done:  E(RHF) =  -904.012021092     A.U. after   11 cycles
 SCF Done:  E(RHF) =  -904.012023781     A.U. after   11 cycles
 SCF Done:  E(RHF) =  -904.012025240     A.U. after   11 cycles
 SCF Done:  E(RHF) =  -904.012026019     A.U. after   10 cycles
 SCF Done:  E(RHF) =  -904.012026186     A.U. after    9 cycles
 Optimization completed.
    -- Stationary point found.

                         Standard orientation:
 ---------------------------------------------------------------------
 Center     Atomic      Atomic             Coordinates (Angstroms)
 Number     Number       Type             X           Y           Z
 ---------------------------------------------------------------------
      1          6           0        1.231901    1.926826   -0.824917
      2          8           0        1.568766    2.329072    0.252308
      3          7           0        0.711940    0.705666   -1.055357
      4          1           0        0.526385    0.438772   -1.996069
      5          6           0        0.433879   -0.236402    0.013349
      6          1           0        0.158311    0.341142    0.885000
      7          6           0        1.693765   -1.058107    0.334301
      8          8           0        1.819995   -2.185897   -0.056028
      9          1           0       -0.439548   -1.764584   -1.240353
     10          1           0       -0.851931   -1.901504    0.441270
     11          6           0       -0.694004   -1.194105   -0.357594
     12         16           0       -2.288028   -0.399170   -0.764146
     13          6           0       -2.664150    0.296769    0.748022
     14          7           0       -2.927419    0.767303    1.749380
     15          7           0        2.609225   -0.406553    1.070453
     16          1           0        1.324679    2.530274   -1.725597
     17          1           0        2.527222    0.572157    1.243677
     18          1           0        3.488674   -0.849735    1.217865
 ---------------------------------------------------------------------

 The electronic state is 1-A.
 Alpha  occ. eigenvalues --  -92.01318 -20.56206 -20.54432 -15.62625 -15.59238
 Alpha  occ. eigenvalues --  -15.59192 -11.37823 -11.36813 -11.31509 -11.30579
 Alpha  occ. eigenvalues --  -11.30340  -9.02222  -6.70534  -6.70338  -6.70140
 Alpha  occ. eigenvalues --   -1.42671  -1.41119  -1.27938  -1.24610  -1.22734
 Alpha  occ. eigenvalues --   -1.12235  -1.03037  -0.91642  -0.86471  -0.81126
 Alpha  occ. eigenvalues --   -0.76783  -0.75107  -0.70867  -0.70105  -0.66465
 Alpha  occ. eigenvalues --   -0.63585  -0.62643  -0.61844  -0.59557  -0.57612
 Alpha  occ. eigenvalues --   -0.56977  -0.55493  -0.53821  -0.52752  -0.46785
 Alpha  occ. eigenvalues --   -0.46528  -0.45730  -0.42435  -0.40964  -0.39143
 Alpha virt. eigenvalues --    0.12461   0.16572   0.18347   0.19274   0.20448
 Alpha virt. eigenvalues --    0.21505   0.22784   0.23873   0.24870   0.27224
 Alpha virt. eigenvalues --    0.29134   0.29872   0.32482   0.34211   0.37842

 Mulliken atomic charges:
              1
     1  C    0.523386
     2  O   -0.580434
     3  N   -0.758018
     4  H    0.399544
     5  C   -0.077314
     6  H    0.259650
     7  C    0.772118
     8  O   -0.604970
     9  H    0.243604
    10  H    0.257307
    11  C   -0.519380
    12  S    0.282965
    13  C    0.093542
    14  N   -0.376957
    15  N   -0.931028
    16  H    0.178135
    17  H    0.440713
    18  H    0.397138
 Sum of Mulliken atomic charges =   0.00000

 Dipole moment (field-independent basis, Debye):
    X=              1.8552    Y=             -0.2863    Z=             -4.0659  Tot=              4.4783
 Quadrupole moment (field-independent basis, Debye-Ang):
   XX=            -75.2911   YY=            -82.7265   ZZ=            -68.4660
   XY=              6.2099   XZ=              7.0684   YZ=             -7.7306

 Normal termination of Gaussian 09 at Wed Feb 19 13:00:10 2020.
