 Gaussian 09, Revision A.02,
 Gaussian 09:  EM64L-G09RevA.02 11-Jun-2009

 ----------------------------------------------------------------------
 #P MP2/6-311++G** SP SCF=(qc,maxcycle=800) Guess=Indo MaxDisk=100GB Po
 p=NBORead
 ----------------------------------------------------------------------

 ---------------------------------------------------------------------
 ModifiedRes Rotatable Bond SP Calculation on g2-node38.bme.utexas.edu
 ---------------------------------------------------------------------
 Symbolic Z-matrix:
 Charge =  0 Multiplicity = 1

                         Standard orientation:
 ---------------------------------------------------------------------
 Center     Atomic      Atomic             Coordinates (Angstroms)
 Number     Number       Type             X           Y           Z
 ---------------------------------------------------------------------
      1          6           0        1.987804   -1.877901    0.270450
      2          8           0        2.667737   -1.775999   -0.750623
      3          7           0        1.037186   -0.961861    0.610141
      4          1           0        0.679325   -1.000974    1.560601
      5          6           0        0.608081    0.169334   -0.239670
      6          1           0        0.696111   -0.173225   -1.279692
      7          6           0        1.526361    1.407498   -0.054410
      8          8           0        1.074740    2.511603   -0.364954
      9          1           0       -0.930788    0.903319    1.117653
     10          1           0       -1.145116    1.374880   -0.582160
     11          6           0       -0.844630    0.561368    0.084064
     12         16           0       -1.997976   -0.858199   -0.175474
     13          6           0       -3.479803   -0.049710    0.035938
     14          7           0       -4.503325    0.535849    0.157864
     15          7           0        2.784380    1.245132    0.437163
     16          1           0        2.121789   -2.693128    0.998862
     17          1           0        3.254819    0.352420    0.357093
     18          1           0        3.337090    2.085691    0.545441
 ---------------------------------------------------------------------

 SCF Done:  E(RHF) =  -904.156833734     a.u. after   12 cycles
 E2 =    -0.1755209514D+01 EUMP2 =    -0.90591204324827D+03

 The electronic state is 1-A.
 Alpha  occ. eigenvalues --  -92.03051 -20.56565 -20.54852 -15.63560 -15.61011
 Alpha  occ. eigenvalues --  -15.60261 -11.39628 -11.38989 -11.34222 -11.31809
 Alpha  occ. eigenvalues --  -11.31761  -9.03179  -6.71435  -6.71255  -6.71100
 Alpha  occ. eigenvalues --   -1.41963  -1.40574  -1.28057  -1.23249  -1.22878
 Alpha  occ. eigenvalues --   -1.12361  -1.03964  -0.91839  -0.86886  -0.82219
 Alpha  occ. eigenvalues --   -0.77146  -0.76160  -0.71432  -0.70339  -0.67289
 Alpha  occ. eigenvalues --   -0.64280  -0.63060  -0.61223  -0.60678  -0.59161
 Alpha  occ. eigenvalues --   -0.57046  -0.55719  -0.53484  -0.52078  -0.47969
 Alpha  occ. eigenvalues --   -0.47074  -0.46120  -0.43987  -0.42207  -0.39335
 Alpha virt. eigenvalues --    0.02340   0.04234   0.04807   0.05459   0.07162
 Alpha virt. eigenvalues --    0.07665   0.07980   0.08435   0.10053   0.10414
 Alpha virt. eigenvalues --    0.10706   0.11803   0.12702   0.12820   0.13326

 Mulliken atomic charges:
              1
     1  C    0.198013
     2  O   -0.416519
     3  N   -0.159450
     4  H    0.324194
     5  C   -0.368773
     6  H    0.280471
     7  C    0.153007
     8  O   -0.384008
     9  H    0.244267
    10  H    0.240583
    11  C   -0.222033
    12  S    0.142618
    13  C   -0.116718
    14  N   -0.196575
    15  N   -0.515057
    16  H    0.148393
    17  H    0.286831
    18  H    0.360755
 Sum of Mulliken atomic charges =   0.00000

 Dipole moment (field-independent basis, Debye):
    X=              4.2229    Y=             -2.6260    Z=              3.5975  Tot=              6.1376
 Quadrupole moment (field-independent basis, Debye-Ang):
   XX=            -92.4633   YY=            -80.2229   ZZ=            -70.5550
   XY=              7.3736   XZ=              9.6319   YZ=             -3.7598

 Normal termination of Gaussian 09 at Wed Feb 19 12:54:25 2020.
