 Gaussian 09, Revision A.02,
 Gaussian 09:  EM64L-G09RevA.02 11-Jun-2009

 ----------------------------------------------------------------------
 #P MP2/6-311++G** SP SCF=(qc,maxcycle=800) Guess=Indo MaxDisk=100GB Po
 p=NBORead
 ----------------------------------------------------------------------

 ---------------------------------------------------------------------
 ModifiedRes Rotatable Bond SP Calculation on g2-node38.bme.utexas.edu
 ---------------------------------------------------------------------
 Symbolic Z-matrix:
 Charge =  0 Multiplicity = 1

                         Standard orientation:
 ---------------------------------------------------------------------
 Center     Atomic      Atomic             Coordinates (Angstroms)
 Number     Number       Type             X           Y           Z
 ---------------------------------------------------------------------
      1          6           0        1.996029   -1.923914    0.232664
      2          8           0        2.532124   -1.858843   -0.876549
      3          7           0        1.049070   -1.034215    0.648182
      4          1           0        0.690852   -1.124083    1.594297
      5          6           0        0.648642    0.138295   -0.154948
      6          1           0        0.743778   -0.162238   -1.209147
      7          6           0        1.600961    1.321268    0.116265
      8          8           0        2.178521    1.399931    1.200025
      9          1           0       -0.902208    0.858951    1.194410
     10          1           0       -1.070382    1.408841   -0.484268
     11          6           0       -0.799425    0.560552    0.147756
     12         16           0       -1.972915   -0.821533   -0.208615
     13          6           0       -3.435388    0.019778    0.004899
     14          7           0       -4.439829    0.637290    0.122475
     15          7           0        1.735584    2.224858   -0.892102
     16          1           0        2.237122   -2.709403    0.966133
     17          1           0        1.336821    2.053171   -1.806837
     18          1           0        2.366807    2.999182   -0.734259
 ---------------------------------------------------------------------

 SCF Done:  E(RHF) =  -904.156918024     a.u. after   12 cycles
 E2 =    -0.1755427995D+01 EUMP2 =    -0.90591234601887D+03

 The electronic state is 1-A.
 Alpha  occ. eigenvalues --  -92.03594 -20.55041 -20.54578 -15.62091 -15.61959
 Alpha  occ. eigenvalues --  -15.60725 -11.39009 -11.37845 -11.33782 -11.32735
 Alpha  occ. eigenvalues --  -11.32210  -9.03713  -6.71961  -6.71782  -6.71623
 Alpha  occ. eigenvalues --   -1.40900  -1.39422  -1.26274  -1.24380  -1.23415
 Alpha  occ. eigenvalues --   -1.12773  -1.04041  -0.91968  -0.86614  -0.81529
 Alpha  occ. eigenvalues --   -0.77281  -0.74621  -0.72676  -0.69354  -0.67334
 Alpha  occ. eigenvalues --   -0.63742  -0.63081  -0.62834  -0.59547  -0.58121
 Alpha  occ. eigenvalues --   -0.56703  -0.55800  -0.54167  -0.52581  -0.47175
 Alpha  occ. eigenvalues --   -0.45369  -0.45291  -0.44262  -0.42339  -0.39725
 Alpha virt. eigenvalues --    0.02785   0.03690   0.05290   0.05358   0.06772
 Alpha virt. eigenvalues --    0.07011   0.07836   0.09024   0.09595   0.10011
 Alpha virt. eigenvalues --    0.11603   0.11983   0.12570   0.12912   0.13504

 Mulliken atomic charges:
              1
     1  C    0.270697
     2  O   -0.416141
     3  N   -0.056507
     4  H    0.331737
     5  C   -0.997519
     6  H    0.278487
     7  C    0.527110
     8  O   -0.379740
     9  H    0.232561
    10  H    0.182747
    11  C   -0.176563
    12  S    0.220425
    13  C   -0.123083
    14  N   -0.206571
    15  N   -0.470073
    16  H    0.140862
    17  H    0.274719
    18  H    0.366854
 Sum of Mulliken atomic charges =   0.00000

 Dipole moment (field-independent basis, Debye):
    X=              0.8687    Y=              0.8993    Z=             -0.5108  Tot=              1.3506
 Quadrupole moment (field-independent basis, Debye-Ang):
   XX=           -106.1184   YY=            -66.6580   ZZ=            -71.0235
   XY=              8.7232   XZ=              0.1609   YZ=            -14.6834

 Normal termination of Gaussian 09 at Wed Feb 19 12:54:10 2020.
