 Gaussian 09, Revision A.02,
 Gaussian 09:  EM64L-G09RevA.02 11-Jun-2009

 ----------------------------------------------------------------------
 #P MP2/6-311++G** SP SCF=(qc,maxcycle=800) Guess=Indo MaxDisk=100GB Po
 p=NBORead
 ----------------------------------------------------------------------

 ---------------------------------------------------------------------
 ModifiedRes Rotatable Bond SP Calculation on g2-node38.bme.utexas.edu
 ---------------------------------------------------------------------
 Symbolic Z-matrix:
 Charge =  0 Multiplicity = 1

                         Standard orientation:
 ---------------------------------------------------------------------
 Center     Atomic      Atomic             Coordinates (Angstroms)
 Number     Number       Type             X           Y           Z
 ---------------------------------------------------------------------
      1          6           0       -2.000526   -1.860349   -0.329415
      2          8           0       -3.046279   -1.509819    0.228700
      3          7           0       -0.838353   -1.155308   -0.223165
      4          1           0       -0.084949   -1.386562   -0.866363
      5          6           0       -0.661837    0.015393    0.659741
      6          1           0       -1.293783   -0.128544    1.549831
      7          6           0       -1.145939    1.283340   -0.084757
      8          8           0       -0.363141    2.193556   -0.348571
      9          1           0        0.812080    0.738430    2.054191
     10          1           0        1.152635   -0.893815    1.433012
     11          6           0        0.795164    0.103086    1.167177
     12         16           0        2.019033    0.780866   -0.053136
     13          6           0        3.003647   -0.593124   -0.262134
     14          7           0        3.633492   -1.583702   -0.422649
     15          7           0       -2.468348    1.320037   -0.398179
     16          1           0       -1.939123   -2.747434   -0.979219
     17          1           0       -3.079221    0.565525   -0.094687
     18          1           0       -2.827391    2.131384   -0.883347
 ---------------------------------------------------------------------

 SCF Done:  E(RHF) =  -904.158964966     a.u. after   11 cycles
 E2 =    -0.1756948997D+01 EUMP2 =    -0.90591591396314D+03

 The electronic state is 1-A.
 Alpha  occ. eigenvalues --  -92.02105 -20.56349 -20.54790 -15.63442 -15.60045
 Alpha  occ. eigenvalues --  -15.59514 -11.39587 -11.38533 -11.33787 -11.31874
 Alpha  occ. eigenvalues --  -11.31064  -9.02181  -6.70404  -6.70210  -6.70067
 Alpha  occ. eigenvalues --   -1.41672  -1.40546  -1.27620  -1.22746  -1.22458
 Alpha  occ. eigenvalues --   -1.11692  -1.03337  -0.92120  -0.86880  -0.80993
 Alpha  occ. eigenvalues --   -0.76990  -0.75597  -0.71170  -0.69893  -0.67577
 Alpha  occ. eigenvalues --   -0.64189  -0.62658  -0.61038  -0.59646  -0.58807
 Alpha  occ. eigenvalues --   -0.57127  -0.55867  -0.52817  -0.51955  -0.47965
 Alpha  occ. eigenvalues --   -0.46769  -0.44963  -0.43246  -0.42591  -0.38173
 Alpha virt. eigenvalues --    0.03188   0.03816   0.04730   0.06150   0.06758
 Alpha virt. eigenvalues --    0.07659   0.08389   0.09025   0.09799   0.10864
 Alpha virt. eigenvalues --    0.11410   0.11776   0.12398   0.13179   0.13388

 Mulliken atomic charges:
              1
     1  C    0.308343
     2  O   -0.462392
     3  N   -0.142574
     4  H    0.311616
     5  C    0.134785
     6  H    0.305773
     7  C    0.003398
     8  O   -0.385599
     9  H    0.249065
    10  H    0.226019
    11  C   -0.810596
    12  S    0.475743
    13  C   -0.338471
    14  N   -0.202481
    15  N   -0.516470
    16  H    0.163475
    17  H    0.325179
    18  H    0.355187
 Sum of Mulliken atomic charges =   0.00000

 Dipole moment (field-independent basis, Debye):
    X=             -3.1701    Y=             -0.4670    Z=              0.8694  Tot=              3.3202
 Quadrupole moment (field-independent basis, Debye-Ang):
   XX=            -91.9803   YY=            -78.5823   ZZ=            -67.1256
   XY=              1.3593   XZ=              7.1112   YZ=              3.4194

 Normal termination of Gaussian 09 at Wed Feb 19 12:41:22 2020.
