 Gaussian 09, Revision A.02,
 Gaussian 09:  EM64L-G09RevA.02 11-Jun-2009

 ----------------------------------------------
 #P opt=(,maxcycle=400) HF/6-31G* MaxDisk=100GB
 ----------------------------------------------

 -------------------------------------------------------------------
 ModifiedRes Rotatable Bond Optimization on g2-node38.bme.utexas.edu
 -------------------------------------------------------------------
 Symbolic Z-matrix:
 Charge =  0 Multiplicity = 1

 SCF Done:  E(RHF) =  -903.985691849     A.U. after   16 cycles
 SCF Done:  E(RHF) =  -904.001454013     A.U. after   15 cycles
 SCF Done:  E(RHF) =  -904.004232132     A.U. after   13 cycles
 SCF Done:  E(RHF) =  -904.006585310     A.U. after   17 cycles
 SCF Done:  E(RHF) =  -904.007484006     A.U. after   17 cycles
 SCF Done:  E(RHF) =  -904.008423117     A.U. after   17 cycles
 SCF Done:  E(RHF) =  -904.008340724     A.U. after   13 cycles
 SCF Done:  E(RHF) =  -904.008599962     A.U. after   13 cycles
 SCF Done:  E(RHF) =  -904.008741297     A.U. after   12 cycles
 SCF Done:  E(RHF) =  -904.008915414     A.U. after   14 cycles
 SCF Done:  E(RHF) =  -904.011178405     A.U. after   13 cycles
 SCF Done:  E(RHF) =  -904.011240315     A.U. after   12 cycles
 SCF Done:  E(RHF) =  -904.011290246     A.U. after   12 cycles
 SCF Done:  E(RHF) =  -904.011358958     A.U. after   13 cycles
 SCF Done:  E(RHF) =  -904.011404729     A.U. after   12 cycles
 SCF Done:  E(RHF) =  -904.011454235     A.U. after   12 cycles
 SCF Done:  E(RHF) =  -904.011475852     A.U. after   12 cycles
 SCF Done:  E(RHF) =  -904.011479459     A.U. after   11 cycles
 SCF Done:  E(RHF) =  -904.011480541     A.U. after   10 cycles
 SCF Done:  E(RHF) =  -904.011481267     A.U. after   10 cycles
 Optimization completed.
    -- Stationary point found.

                         Standard orientation:
 ---------------------------------------------------------------------
 Center     Atomic      Atomic             Coordinates (Angstroms)
 Number     Number       Type             X           Y           Z
 ---------------------------------------------------------------------
      1          6           0        1.914351   -1.809212    0.474806
      2          8           0        2.537245   -1.850166   -0.547680
      3          7           0        0.972806   -0.885704    0.758277
      4          1           0        0.596612   -0.859231    1.680550
      5          6           0        0.605533    0.165575   -0.176210
      6          1           0        0.717625   -0.245647   -1.170011
      7          6           0        1.544507    1.374208   -0.029341
      8          8           0        1.191520    2.377286    0.523852
      9          1           0       -0.966625    1.029567    1.029979
     10          1           0       -1.092065    1.371774   -0.680044
     11          6           0       -0.834363    0.614162    0.043127
     12         16           0       -1.956164   -0.821175   -0.177453
     13          6           0       -3.448250    0.002202   -0.101903
     14          7           0       -4.455633    0.527529   -0.052927
     15          7           0        2.763207    1.196131   -0.567710
     16          1           0        2.058306   -2.533548    1.273642
     17          1           0        3.054844    0.306118   -0.909247
     18          1           0        3.446465    1.905503   -0.421344
 ---------------------------------------------------------------------

 The electronic state is 1-A.
 Alpha  occ. eigenvalues --  -92.01090 -20.56942 -20.54877 -15.63314 -15.59694
 Alpha  occ. eigenvalues --  -15.58909 -11.38513 -11.37294 -11.32190 -11.30400
 Alpha  occ. eigenvalues --  -11.30073  -9.01999  -6.70307  -6.70117  -6.69913
 Alpha  occ. eigenvalues --   -1.43377  -1.41620  -1.28587  -1.24298  -1.23195
 Alpha  occ. eigenvalues --   -1.12244  -1.03306  -0.91358  -0.87050  -0.81774
 Alpha  occ. eigenvalues --   -0.76977  -0.75835  -0.71460  -0.69980  -0.67176
 Alpha  occ. eigenvalues --   -0.64517  -0.62836  -0.62088  -0.58993  -0.58403
 Alpha  occ. eigenvalues --   -0.57104  -0.56109  -0.53405  -0.52337  -0.47399
 Alpha  occ. eigenvalues --   -0.46507  -0.46143  -0.42873  -0.41763  -0.38696
 Alpha virt. eigenvalues --    0.12894   0.15870   0.17637   0.19446   0.20871
 Alpha virt. eigenvalues --    0.21179   0.22429   0.23474   0.24295   0.27400
 Alpha virt. eigenvalues --    0.28397   0.29670   0.32287   0.34510   0.37792

 Mulliken atomic charges:
              1
     1  C    0.521788
     2  O   -0.579105
     3  N   -0.768354
     4  H    0.406921
     5  C   -0.100471
     6  H    0.253984
     7  C    0.775520
     8  O   -0.596674
     9  H    0.246116
    10  H    0.252346
    11  C   -0.492818
    12  S    0.285982
    13  C    0.084642
    14  N   -0.376526
    15  N   -0.934248
    16  H    0.182709
    17  H    0.438806
    18  H    0.399382
 Sum of Mulliken atomic charges =   0.00000

 Dipole moment (field-independent basis, Debye):
    X=              4.1283    Y=             -2.0474    Z=              1.5060  Tot=              4.8480
 Quadrupole moment (field-independent basis, Debye-Ang):
   XX=            -89.2528   YY=            -79.2472   ZZ=            -67.5875
   XY=              6.4410   XZ=              2.5769   YZ=             -8.6430

 Normal termination of Gaussian 09 at Wed Feb 19 12:48:34 2020.
