 Gaussian 09, Revision A.02,
 Gaussian 09:  EM64L-G09RevA.02 11-Jun-2009

 ----------------------------------------------------------------------
 #P MP2/6-311++G** SP SCF=(qc,maxcycle=800) Guess=Indo MaxDisk=100GB Po
 p=NBORead
 ----------------------------------------------------------------------

 ---------------------------------------------------------------------
 ModifiedRes Rotatable Bond SP Calculation on g2-node38.bme.utexas.edu
 ---------------------------------------------------------------------
 Symbolic Z-matrix:
 Charge =  0 Multiplicity = 1

                         Standard orientation:
 ---------------------------------------------------------------------
 Center     Atomic      Atomic             Coordinates (Angstroms)
 Number     Number       Type             X           Y           Z
 ---------------------------------------------------------------------
      1          6           0        1.986986   -1.816450    0.451051
      2          8           0        2.685373   -1.743198   -0.566465
      3          7           0        0.987035   -0.929028    0.724555
      4          1           0        0.600333   -0.923501    1.664183
      5          6           0        0.611647    0.155709   -0.199612
      6          1           0        0.730082   -0.243828   -1.217214
      7          6           0        1.555787    1.362303   -0.013914
      8          8           0        1.163835    2.347548    0.613844
      9          1           0       -0.949139    1.038957    1.018334
     10          1           0       -1.120263    1.323970   -0.731050
     11          6           0       -0.852490    0.586295    0.028120
     12         16           0       -2.011745   -0.845108   -0.114781
     13          6           0       -3.492795   -0.008123   -0.123023
     14          7           0       -4.538739    0.549936   -0.131138
     15          7           0        2.786571    1.241730   -0.576987
     16          1           0        2.136667   -2.587645    1.222926
     17          1           0        3.060839    0.351420   -0.984962
     18          1           0        3.436860    2.010682   -0.485500
 ---------------------------------------------------------------------

 SCF Done:  E(RHF) =  -904.161607680     a.u. after   11 cycles
 E2 =    -0.1755791613D+01 EUMP2 =    -0.90591739929341D+03

 The electronic state is 1-A.
 Alpha  occ. eigenvalues --  -92.02947 -20.56734 -20.54733 -15.63945 -15.60480
 Alpha  occ. eigenvalues --  -15.60149 -11.39920 -11.38604 -11.33743 -11.31667
 Alpha  occ. eigenvalues --  -11.31475  -9.03074  -6.71331  -6.71150  -6.70997
 Alpha  occ. eigenvalues --   -1.41921  -1.40263  -1.28065  -1.23144  -1.22771
 Alpha  occ. eigenvalues --   -1.12117  -1.03804  -0.91717  -0.87403  -0.81499
 Alpha  occ. eigenvalues --   -0.76763  -0.75856  -0.71751  -0.70190  -0.67772
 Alpha  occ. eigenvalues --   -0.64371  -0.62692  -0.62320  -0.59058  -0.58080
 Alpha  occ. eigenvalues --   -0.56975  -0.56654  -0.53357  -0.51929  -0.47968
 Alpha  occ. eigenvalues --   -0.47086  -0.45856  -0.43319  -0.42643  -0.39145
 Alpha virt. eigenvalues --    0.02702   0.04112   0.05174   0.05448   0.07118
 Alpha virt. eigenvalues --    0.07510   0.08552   0.08708   0.09526   0.10670
 Alpha virt. eigenvalues --    0.10811   0.11734   0.12553   0.12866   0.12959

 Mulliken atomic charges:
              1
     1  C    0.294237
     2  O   -0.457348
     3  N   -0.121269
     4  H    0.334594
     5  C   -0.413406
     6  H    0.268165
     7  C    0.286816
     8  O   -0.403042
     9  H    0.256547
    10  H    0.234834
    11  C   -0.450003
    12  S    0.128690
    13  C   -0.114257
    14  N   -0.196245
    15  N   -0.497950
    16  H    0.162129
    17  H    0.322108
    18  H    0.365401
 Sum of Mulliken atomic charges =   0.00000

 Dipole moment (field-independent basis, Debye):
    X=              4.1371    Y=             -2.4266    Z=              1.2119  Tot=              4.9470
 Quadrupole moment (field-independent basis, Debye-Ang):
   XX=            -94.0992   YY=            -79.4809   ZZ=            -69.0815
   XY=              7.1719   XZ=              1.6499   YZ=            -10.1229

 Normal termination of Gaussian 09 at Wed Feb 19 12:34:49 2020.
