 Gaussian 09, Revision A.02,
 Gaussian 09:  EM64L-G09RevA.02 11-Jun-2009

 ----------------------------------------------------------------------
 #P MP2/6-311++G** SP SCF=(qc,maxcycle=800) Guess=Indo MaxDisk=100GB Po
 p=NBORead
 ----------------------------------------------------------------------

 ---------------------------------------------------------------------
 ModifiedRes Rotatable Bond SP Calculation on g2-node38.bme.utexas.edu
 ---------------------------------------------------------------------
 Symbolic Z-matrix:
 Charge =  0 Multiplicity = 1

                         Standard orientation:
 ---------------------------------------------------------------------
 Center     Atomic      Atomic             Coordinates (Angstroms)
 Number     Number       Type             X           Y           Z
 ---------------------------------------------------------------------
      1          6           0        1.716097    1.981336   -0.358831
      2          8           0        2.779738    1.808172    0.246649
      3          7           0        0.670366    1.110228   -0.270839
      4          1           0       -0.077135    1.209273   -0.952629
      5          6           0        0.645603   -0.044980    0.651804
      6          1           0        1.212989    0.238407    1.551402
      7          6           0        1.338418   -1.248837   -0.023210
      8          8           0        0.688918   -2.268179   -0.255601
      9          1           0       -0.752998   -1.227972    1.799984
     10          1           0       -1.218932    0.474754    1.649921
     11          6           0       -0.786598   -0.375463    1.119562
     12         16           0       -1.918417   -0.777957   -0.292691
     13          6           0       -3.029366    0.507187   -0.171845
     14          7           0       -3.810702    1.395542   -0.107452
     15          7           0        2.659796   -1.103619   -0.306461
     16          1           0        1.548063    2.831184   -1.038838
     17          1           0        3.144362   -0.255972   -0.021626
     18          1           0        3.147936   -1.872827   -0.745162
 ---------------------------------------------------------------------

 SCF Done:  E(RHF) =  -904.163702258     a.u. after   11 cycles
 E2 =    -0.1756955226D+01 EUMP2 =    -0.90592065748405D+03

 The electronic state is 1-A.
 Alpha  occ. eigenvalues --  -92.02668 -20.56244 -20.54791 -15.63265 -15.60171
 Alpha  occ. eigenvalues --  -15.59991 -11.39459 -11.38453 -11.33615 -11.31873
 Alpha  occ. eigenvalues --  -11.31498  -9.02758  -6.70990  -6.70802  -6.70663
 Alpha  occ. eigenvalues --   -1.41561  -1.40397  -1.27447  -1.22905  -1.22738
 Alpha  occ. eigenvalues --   -1.11936  -1.03522  -0.92186  -0.86693  -0.80964
 Alpha  occ. eigenvalues --   -0.76966  -0.75615  -0.71508  -0.69848  -0.67233
 Alpha  occ. eigenvalues --   -0.64284  -0.62918  -0.60548  -0.59780  -0.58815
 Alpha  occ. eigenvalues --   -0.57225  -0.56224  -0.52925  -0.52329  -0.47877
 Alpha  occ. eigenvalues --   -0.46710  -0.45439  -0.43248  -0.42378  -0.39085
 Alpha virt. eigenvalues --    0.03269   0.03851   0.04717   0.06003   0.06836
 Alpha virt. eigenvalues --    0.07558   0.08450   0.08985   0.09690   0.10658
 Alpha virt. eigenvalues --    0.11221   0.12173   0.12455   0.13075   0.13333

 Mulliken atomic charges:
              1
     1  C    0.296031
     2  O   -0.461753
     3  N   -0.194049
     4  H    0.286737
     5  C    0.330553
     6  H    0.307135
     7  C   -0.045938
     8  O   -0.414241
     9  H    0.258410
    10  H    0.225474
    11  C   -0.813446
    12  S    0.390819
    13  C   -0.295544
    14  N   -0.199991
    15  N   -0.515164
    16  H    0.163966
    17  H    0.325366
    18  H    0.355635
 Sum of Mulliken atomic charges =   0.00000

 Dipole moment (field-independent basis, Debye):
    X=              2.9598    Y=              0.3881    Z=              0.2861  Tot=              2.9988
 Quadrupole moment (field-independent basis, Debye-Ang):
   XX=            -90.7365   YY=            -81.0783   ZZ=            -66.5452
   XY=              0.8301   XZ=             -4.7238   YZ=             -5.3011

 Normal termination of Gaussian 09 at Wed Feb 19 12:36:34 2020.
