 Gaussian 09, Revision A.02,
 Gaussian 09:  EM64L-G09RevA.02 11-Jun-2009

 ----------------------------------------------
 #P opt=(,maxcycle=400) HF/6-31G* MaxDisk=100GB
 ----------------------------------------------

 -------------------------------------------------------------------
 ModifiedRes Rotatable Bond Optimization on g2-node38.bme.utexas.edu
 -------------------------------------------------------------------
 Symbolic Z-matrix:
 Charge =  0 Multiplicity = 1

 SCF Done:  E(RHF) =  -903.988511091     A.U. after   16 cycles
 SCF Done:  E(RHF) =  -904.005329155     A.U. after   15 cycles
 SCF Done:  E(RHF) =  -904.008755990     A.U. after   14 cycles
 SCF Done:  E(RHF) =  -904.012621949     A.U. after   15 cycles
 SCF Done:  E(RHF) =  -904.013017768     A.U. after   16 cycles
 SCF Done:  E(RHF) =  -904.012969852     A.U. after   13 cycles
 SCF Done:  E(RHF) =  -904.013645859     A.U. after   14 cycles
 SCF Done:  E(RHF) =  -904.013887407     A.U. after   13 cycles
 SCF Done:  E(RHF) =  -904.013858494     A.U. after   12 cycles
 SCF Done:  E(RHF) =  -904.013903543     A.U. after   11 cycles
 SCF Done:  E(RHF) =  -904.013908332     A.U. after   11 cycles
 SCF Done:  E(RHF) =  -904.013913113     A.U. after   11 cycles
 SCF Done:  E(RHF) =  -904.013914141     A.U. after    9 cycles
 SCF Done:  E(RHF) =  -904.013914521     A.U. after   10 cycles
 SCF Done:  E(RHF) =  -904.013914680     A.U. after   10 cycles
 SCF Done:  E(RHF) =  -904.013914742     A.U. after    9 cycles
 SCF Done:  E(RHF) =  -904.013914792     A.U. after    8 cycles
 Optimization completed.
    -- Stationary point found.

                         Standard orientation:
 ---------------------------------------------------------------------
 Center     Atomic      Atomic             Coordinates (Angstroms)
 Number     Number       Type             X           Y           Z
 ---------------------------------------------------------------------
      1          6           0       -0.822327    2.108533    0.151270
      2          8           0       -1.588234    2.281115   -0.755668
      3          7           0       -0.310843    0.912082    0.498309
      4          1           0        0.266133    0.863060    1.308753
      5          6           0       -0.571423   -0.295285   -0.263868
      6          1           0       -0.706836    0.006170   -1.293612
      7          6           0       -1.860851   -0.979273    0.220519
      8          8           0       -1.830424   -2.008634    0.836437
      9          1           0        0.768336   -1.589277    0.854433
     10          1           0        0.342934   -2.177153   -0.721529
     11          6           0        0.586098   -1.284205   -0.164384
     12         16           0        2.151847   -0.694982   -0.908175
     13          6           0        2.756699    0.251552    0.376801
     14          7           0        3.160144    0.881548    1.234103
     15          7           0       -2.990373   -0.333902   -0.114393
     16          1           0       -0.474186    2.923029    0.782106
     17          1           0       -2.966768    0.567828   -0.539575
     18          1           0       -3.851574   -0.679822    0.245903
 ---------------------------------------------------------------------

 The electronic state is 1-A.
 Alpha  occ. eigenvalues --  -92.01535 -20.56118 -20.54464 -15.62385 -15.59765
 Alpha  occ. eigenvalues --  -15.59210 -11.37664 -11.36826 -11.31558 -11.31118
 Alpha  occ. eigenvalues --  -11.30690  -9.02437  -6.70745  -6.70549  -6.70353
 Alpha  occ. eigenvalues --   -1.42550  -1.41136  -1.27860  -1.25270  -1.22716
 Alpha  occ. eigenvalues --   -1.12306  -1.03232  -0.91700  -0.86307  -0.81118
 Alpha  occ. eigenvalues --   -0.76715  -0.75223  -0.71339  -0.69133  -0.67526
 Alpha  occ. eigenvalues --   -0.63660  -0.63431  -0.60081  -0.59478  -0.58287
 Alpha  occ. eigenvalues --   -0.57135  -0.56454  -0.53933  -0.53150  -0.47097
 Alpha  occ. eigenvalues --   -0.46725  -0.45576  -0.42389  -0.41374  -0.39101
 Alpha virt. eigenvalues --    0.12161   0.16243   0.18112   0.19356   0.20561
 Alpha virt. eigenvalues --    0.21744   0.22689   0.24328   0.25125   0.27290
 Alpha virt. eigenvalues --    0.29341   0.29548   0.32326   0.33668   0.37096

 Mulliken atomic charges:
              1
     1  C    0.520586
     2  O   -0.587303
     3  N   -0.771023
     4  H    0.414025
     5  C   -0.064838
     6  H    0.249122
     7  C    0.771606
     8  O   -0.603443
     9  H    0.254002
    10  H    0.251869
    11  C   -0.521034
    12  S    0.295741
    13  C    0.098912
    14  N   -0.398001
    15  N   -0.936841
    16  H    0.186971
    17  H    0.441656
    18  H    0.397992
 Sum of Mulliken atomic charges =   0.00000

 Dipole moment (field-independent basis, Debye):
    X=             -1.4411    Y=             -0.2225    Z=             -0.6284  Tot=              1.5878
 Quadrupole moment (field-independent basis, Debye-Ang):
   XX=            -76.6753   YY=            -78.6931   ZZ=            -73.3725
   XY=             -4.9473   XZ=             -5.2700   YZ=              7.7232

 Normal termination of Gaussian 09 at Wed Feb 19 13:00:36 2020.
