 Gaussian 09, Revision A.02,
 Gaussian 09:  EM64L-G09RevA.02 11-Jun-2009

 ----------------------------------------------
 #P opt=(,maxcycle=400) HF/6-31G* MaxDisk=100GB
 ----------------------------------------------

 -------------------------------------------------------------------
 ModifiedRes Rotatable Bond Optimization on g2-node38.bme.utexas.edu
 -------------------------------------------------------------------
 Symbolic Z-matrix:
 Charge =  0 Multiplicity = 1

 SCF Done:  E(RHF) =  -903.992756172     A.U. after   16 cycles
 SCF Done:  E(RHF) =  -904.006601310     A.U. after   14 cycles
 SCF Done:  E(RHF) =  -904.006429044     A.U. after   14 cycles
 SCF Done:  E(RHF) =  -904.007975296     A.U. after   13 cycles
 SCF Done:  E(RHF) =  -904.008124679     A.U. after   14 cycles
 SCF Done:  E(RHF) =  -904.008060806     A.U. after   14 cycles
 SCF Done:  E(RHF) =  -904.008256495     A.U. after   13 cycles
 SCF Done:  E(RHF) =  -904.008303110     A.U. after   12 cycles
 SCF Done:  E(RHF) =  -904.008316928     A.U. after   13 cycles
 SCF Done:  E(RHF) =  -904.008327875     A.U. after   12 cycles
 SCF Done:  E(RHF) =  -904.008330687     A.U. after   11 cycles
 SCF Done:  E(RHF) =  -904.008331489     A.U. after   11 cycles
 SCF Done:  E(RHF) =  -904.008331686     A.U. after   10 cycles
 SCF Done:  E(RHF) =  -904.008331753     A.U. after   10 cycles
 Optimization completed.
    -- Stationary point found.

                         Standard orientation:
 ---------------------------------------------------------------------
 Center     Atomic      Atomic             Coordinates (Angstroms)
 Number     Number       Type             X           Y           Z
 ---------------------------------------------------------------------
      1          6           0        2.783297   -1.371836    0.260933
      2          8           0        3.179751   -1.075559   -0.829296
      3          7           0        1.568480   -1.040353    0.748788
      4          1           0        1.393492   -1.178786    1.720010
      5          6           0        0.637859   -0.224702   -0.013526
      6          1           0        0.801242   -0.467201   -1.054231
      7          6           0        0.951680    1.258637    0.237119
      8          8           0        0.400022    1.872816    1.105302
      9          1           0       -0.902439   -1.650655    0.434131
     10          1           0       -1.021552   -0.139979    1.356288
     11          6           0       -0.789657   -0.577446    0.397576
     12         16           0       -1.962634    0.085094   -0.843925
     13          6           0       -3.421521   -0.307311   -0.055499
     14          7           0       -4.405272   -0.569059    0.451431
     15          7           0        1.898481    1.771372   -0.571321
     16          1           0        3.379652   -1.955952    0.958897
     17          1           0        2.473142    1.171731   -1.122622
     18          1           0        2.238646    2.683522   -0.359627
 ---------------------------------------------------------------------

 The electronic state is 1-A.
 Alpha  occ. eigenvalues --  -92.00787 -20.56847 -20.54841 -15.63176 -15.59795
 Alpha  occ. eigenvalues --  -15.58676 -11.38404 -11.37142 -11.32050 -11.30205
 Alpha  occ. eigenvalues --  -11.29889  -9.01705  -6.70017  -6.69830  -6.69615
 Alpha  occ. eigenvalues --   -1.43285  -1.41570  -1.28391  -1.24081  -1.23247
 Alpha  occ. eigenvalues --   -1.12218  -1.02846  -0.91521  -0.86654  -0.81700
 Alpha  occ. eigenvalues --   -0.77245  -0.74923  -0.71639  -0.70376  -0.66428
 Alpha  occ. eigenvalues --   -0.64569  -0.63468  -0.61628  -0.58283  -0.57872
 Alpha  occ. eigenvalues --   -0.57361  -0.56134  -0.53136  -0.52059  -0.47202
 Alpha  occ. eigenvalues --   -0.46987  -0.45370  -0.43132  -0.41485  -0.38459
 Alpha virt. eigenvalues --    0.12539   0.15949   0.17428   0.19937   0.20491
 Alpha virt. eigenvalues --    0.21866   0.22728   0.24193   0.24493   0.27100
 Alpha virt. eigenvalues --    0.27837   0.30462   0.31858   0.34868   0.38525

 Mulliken atomic charges:
              1
     1  C    0.518653
     2  O   -0.576006
     3  N   -0.764383
     4  H    0.403319
     5  C   -0.086487
     6  H    0.249917
     7  C    0.763943
     8  O   -0.595200
     9  H    0.235926
    10  H    0.261132
    11  C   -0.503534
    12  S    0.298336
    13  C    0.087276
    14  N   -0.378806
    15  N   -0.921415
    16  H    0.179964
    17  H    0.428936
    18  H    0.398430
 Sum of Mulliken atomic charges =   0.00000

 Dipole moment (field-independent basis, Debye):
    X=              5.0517    Y=             -1.6100    Z=              0.7700  Tot=              5.3577
 Quadrupole moment (field-independent basis, Debye-Ang):
   XX=            -91.1678   YY=            -70.3627   ZZ=            -70.8235
   XY=              0.8471   XZ=             10.3152   YZ=             -9.3230

 Normal termination of Gaussian 09 at Wed Feb 19 12:36:30 2020.
