 Gaussian 09, Revision A.02,
 Gaussian 09:  EM64L-G09RevA.02 11-Jun-2009

 ----------------------------------------------------------------------
 #P MP2/6-311++G** SP SCF=(qc,maxcycle=800) Guess=Indo MaxDisk=100GB Po
 p=NBORead
 ----------------------------------------------------------------------

 ---------------------------------------------------------------------
 ModifiedRes Rotatable Bond SP Calculation on g2-node38.bme.utexas.edu
 ---------------------------------------------------------------------
 Symbolic Z-matrix:
 Charge =  0 Multiplicity = 1

                         Standard orientation:
 ---------------------------------------------------------------------
 Center     Atomic      Atomic             Coordinates (Angstroms)
 Number     Number       Type             X           Y           Z
 ---------------------------------------------------------------------
      1          6           0        2.017719   -1.909718    0.207295
      2          8           0        2.525239   -1.860910   -0.916332
      3          7           0        1.068145   -1.026205    0.632160
      4          1           0        0.720564   -1.120775    1.581664
      5          6           0        0.653134    0.144908   -0.167497
      6          1           0        0.740688   -0.151545   -1.223136
      7          6           0        1.604543    1.336135    0.093494
      8          8           0        2.451391    1.266411    0.982891
      9          1           0       -0.894032    0.843472    1.201205
     10          1           0       -1.090463    1.394273   -0.472263
     11          6           0       -0.798664    0.549070    0.152943
     12         16           0       -1.955505   -0.849467   -0.195231
     13          6           0       -3.424289   -0.025344    0.037647
     14          7           0       -4.433089    0.582011    0.168100
     15          7           0        1.436442    2.427409   -0.703614
     16          1           0        2.284318   -2.680685    0.947732
     17          1           0        0.839222    2.402197   -1.521069
     18          1           0        2.059609    3.207730   -0.542716
 ---------------------------------------------------------------------

 SCF Done:  E(RHF) =  -904.154797490     a.u. after   12 cycles
 E2 =    -0.1755857376D+01 EUMP2 =    -0.90591065486594D+03

 The electronic state is 1-A.
 Alpha  occ. eigenvalues --  -92.03718 -20.55065 -20.54275 -15.61958 -15.61921
 Alpha  occ. eigenvalues --  -15.60841 -11.39043 -11.37579 -11.33868 -11.32958
 Alpha  occ. eigenvalues --  -11.32319  -9.03837  -6.72083  -6.71905  -6.71746
 Alpha  occ. eigenvalues --   -1.40883  -1.39087  -1.26112  -1.24396  -1.23552
 Alpha  occ. eigenvalues --   -1.12845  -1.04059  -0.92022  -0.86459  -0.81681
 Alpha  occ. eigenvalues --   -0.77289  -0.74549  -0.72470  -0.69326  -0.67470
 Alpha  occ. eigenvalues --   -0.63835  -0.63014  -0.62447  -0.60033  -0.58181
 Alpha  occ. eigenvalues --   -0.56539  -0.55473  -0.54291  -0.52711  -0.47351
 Alpha  occ. eigenvalues --   -0.45260  -0.45047  -0.44198  -0.42269  -0.39869
 Alpha virt. eigenvalues --    0.02622   0.03640   0.05187   0.05333   0.06726
 Alpha virt. eigenvalues --    0.06927   0.07856   0.09218   0.09654   0.09928
 Alpha virt. eigenvalues --    0.11571   0.12104   0.12657   0.12912   0.13375

 Mulliken atomic charges:
              1
     1  C    0.262755
     2  O   -0.422497
     3  N   -0.057345
     4  H    0.326804
     5  C   -0.965700
     6  H    0.286776
     7  C    0.491044
     8  O   -0.385701
     9  H    0.234714
    10  H    0.153130
    11  C   -0.080901
    12  S    0.216267
    13  C   -0.135112
    14  N   -0.205990
    15  N   -0.500237
    16  H    0.138574
    17  H    0.272203
    18  H    0.371216
 Sum of Mulliken atomic charges =   0.00000

 Dipole moment (field-independent basis, Debye):
    X=             -0.0035    Y=              1.5424    Z=              0.1340  Tot=              1.5482
 Quadrupole moment (field-independent basis, Debye-Ang):
   XX=           -109.8427   YY=            -64.2255   ZZ=            -70.9166
   XY=              7.5387   XZ=              2.2890   YZ=            -13.6512

 Normal termination of Gaussian 09 at Wed Feb 19 12:53:59 2020.
