 Gaussian 09, Revision A.02,
 Gaussian 09:  EM64L-G09RevA.02 11-Jun-2009

 ----------------------------------------------------------------------
 #P MP2/6-311++G** SP SCF=(qc,maxcycle=800) Guess=Indo MaxDisk=100GB Po
 p=NBORead
 ----------------------------------------------------------------------

 ---------------------------------------------------------------------
 ModifiedRes Rotatable Bond SP Calculation on g2-node38.bme.utexas.edu
 ---------------------------------------------------------------------
 Symbolic Z-matrix:
 Charge =  0 Multiplicity = 1

                         Standard orientation:
 ---------------------------------------------------------------------
 Center     Atomic      Atomic             Coordinates (Angstroms)
 Number     Number       Type             X           Y           Z
 ---------------------------------------------------------------------
      1          6           0        2.026004   -1.890693    0.248464
      2          8           0        2.505073   -1.904504   -0.888568
      3          7           0        1.075794   -0.995151    0.648951
      4          1           0        0.730660   -1.064839    1.601525
      5          6           0        0.654701    0.150880   -0.183826
      6          1           0        0.740785   -0.170300   -1.231890
      7          6           0        1.611789    1.352277    0.042006
      8          8           0        2.661173    1.191897    0.662351
      9          1           0       -0.899128    0.865934    1.171722
     10          1           0       -1.110365    1.371476   -0.512022
     11          6           0       -0.803371    0.547046    0.130953
     12         16           0       -1.942437   -0.874792   -0.180361
     13          6           0       -3.418889   -0.061262    0.040361
     14          7           0       -4.432828    0.539169    0.161391
     15          7           0        1.240080    2.561015   -0.465266
     16          1           0        2.314678   -2.619092    1.023138
     17          1           0        0.491087    2.661219   -1.138829
     18          1           0        1.878578    3.328415   -0.301409
 ---------------------------------------------------------------------

 SCF Done:  E(RHF) =  -904.151328387     a.u. after   12 cycles
 E2 =    -0.1756529234D+01 EUMP2 =    -0.90590785762135D+03

 The electronic state is 1-A.
 Alpha  occ. eigenvalues --  -92.03797 -20.54943 -20.54028 -15.61967 -15.61897
 Alpha  occ. eigenvalues --  -15.60917 -11.39062 -11.37392 -11.34009 -11.33089
 Alpha  occ. eigenvalues --  -11.32396  -9.03914  -6.72160  -6.71981  -6.71822
 Alpha  occ. eigenvalues --   -1.40870  -1.38805  -1.26069  -1.24326  -1.23644
 Alpha  occ. eigenvalues --   -1.12874  -1.04029  -0.92081  -0.86295  -0.81928
 Alpha  occ. eigenvalues --   -0.77346  -0.74520  -0.72137  -0.69291  -0.67777
 Alpha  occ. eigenvalues --   -0.63935  -0.62991  -0.61681  -0.60414  -0.58234
 Alpha  occ. eigenvalues --   -0.56433  -0.55248  -0.54379  -0.52795  -0.47457
 Alpha  occ. eigenvalues --   -0.45495  -0.44788  -0.44077  -0.42023  -0.39941
 Alpha virt. eigenvalues --    0.02480   0.03542   0.05119   0.05368   0.06724
 Alpha virt. eigenvalues --    0.06842   0.08065   0.09350   0.09536   0.10017
 Alpha virt. eigenvalues --    0.11505   0.12107   0.12683   0.13029   0.13423

 Mulliken atomic charges:
              1
     1  C    0.253607
     2  O   -0.424289
     3  N   -0.105086
     4  H    0.321843
     5  C   -0.684524
     6  H    0.289182
     7  C    0.309640
     8  O   -0.396400
     9  H    0.251730
    10  H    0.113243
    11  C   -0.074918
    12  S    0.213617
    13  C   -0.151189
    14  N   -0.204068
    15  N   -0.482480
    16  H    0.136066
    17  H    0.265998
    18  H    0.368028
 Sum of Mulliken atomic charges =   0.00000

 Dipole moment (field-independent basis, Debye):
    X=             -0.5795    Y=              2.0802    Z=              0.9972  Tot=              2.3786
 Quadrupole moment (field-independent basis, Debye-Ang):
   XX=           -112.3012   YY=            -63.2087   ZZ=            -70.2911
   XY=              6.7719   XZ=              4.4037   YZ=            -12.0838

 Normal termination of Gaussian 09 at Wed Feb 19 12:49:12 2020.
