 Gaussian 09, Revision A.02,
 Gaussian 09:  EM64L-G09RevA.02 11-Jun-2009

 ----------------------------------------------
 #P opt=(,maxcycle=400) HF/6-31G* MaxDisk=100GB
 ----------------------------------------------

 -------------------------------------------------------------------
 ModifiedRes Rotatable Bond Optimization on g2-node38.bme.utexas.edu
 -------------------------------------------------------------------
 Symbolic Z-matrix:
 Charge =  0 Multiplicity = 1

 SCF Done:  E(RHF) =  -903.996352506     A.U. after   16 cycles
 SCF Done:  E(RHF) =  -904.009902931     A.U. after   14 cycles
 SCF Done:  E(RHF) =  -904.010419858     A.U. after   14 cycles
 SCF Done:  E(RHF) =  -904.011059559     A.U. after   14 cycles
 SCF Done:  E(RHF) =  -904.011369604     A.U. after   14 cycles
 SCF Done:  E(RHF) =  -904.011365013     A.U. after   12 cycles
 SCF Done:  E(RHF) =  -904.011471737     A.U. after   13 cycles
 SCF Done:  E(RHF) =  -904.011477359     A.U. after   12 cycles
 SCF Done:  E(RHF) =  -904.011479867     A.U. after   10 cycles
 SCF Done:  E(RHF) =  -904.011480510     A.U. after    9 cycles
 SCF Done:  E(RHF) =  -904.011481218     A.U. after   10 cycles
 SCF Done:  E(RHF) =  -904.011481455     A.U. after    9 cycles
 Optimization completed.
    -- Stationary point found.

                         Standard orientation:
 ---------------------------------------------------------------------
 Center     Atomic      Atomic             Coordinates (Angstroms)
 Number     Number       Type             X           Y           Z
 ---------------------------------------------------------------------
      1          6           0        1.915519   -1.808824    0.474440
      2          8           0        2.539437   -1.848575   -0.547514
      3          7           0        0.972729   -0.886548    0.757543
      4          1           0        0.595123   -0.861874    1.679290
      5          6           0        0.605204    0.165532   -0.176024
      6          1           0        0.716614   -0.244923   -1.170292
      7          6           0        1.544133    1.374522   -0.029559
      8          8           0        1.190164    2.378631    0.521267
      9          1           0       -0.966920    1.027619    1.031867
     10          1           0       -1.092515    1.372507   -0.677563
     11          6           0       -0.834685    0.613823    0.044355
     12         16           0       -1.956418   -0.821383   -0.178264
     13          6           0       -3.448544    0.001842   -0.101695
     14          7           0       -4.456039    0.526782   -0.052039
     15          7           0        2.763713    1.195493   -0.565081
     16          1           0        2.059042   -2.533937    1.272608
     17          1           0        3.055515    0.305242   -0.905938
     18          1           0        3.446436    1.905591   -0.419838
 ---------------------------------------------------------------------

 The electronic state is 1-A.
 Alpha  occ. eigenvalues --  -92.01092 -20.56943 -20.54870 -15.63318 -15.59689
 Alpha  occ. eigenvalues --  -15.58909 -11.38515 -11.37291 -11.32196 -11.30403
 Alpha  occ. eigenvalues --  -11.30073  -9.02000  -6.70309  -6.70119  -6.69915
 Alpha  occ. eigenvalues --   -1.43377  -1.41612  -1.28588  -1.24301  -1.23195
 Alpha  occ. eigenvalues --   -1.12245  -1.03305  -0.91358  -0.87053  -0.81769
 Alpha  occ. eigenvalues --   -0.76975  -0.75846  -0.71458  -0.69985  -0.67174
 Alpha  occ. eigenvalues --   -0.64517  -0.62830  -0.62080  -0.58997  -0.58411
 Alpha  occ. eigenvalues --   -0.57097  -0.56109  -0.53407  -0.52340  -0.47401
 Alpha  occ. eigenvalues --   -0.46510  -0.46142  -0.42864  -0.41762  -0.38699
 Alpha virt. eigenvalues --    0.12891   0.15868   0.17637   0.19442   0.20873
 Alpha virt. eigenvalues --    0.21181   0.22428   0.23471   0.24300   0.27395
 Alpha virt. eigenvalues --    0.28401   0.29671   0.32299   0.34508   0.37792

 Mulliken atomic charges:
              1
     1  C    0.521835
     2  O   -0.579235
     3  N   -0.768367
     4  H    0.406905
     5  C   -0.100354
     6  H    0.253887
     7  C    0.775541
     8  O   -0.596798
     9  H    0.246012
    10  H    0.252486
    11  C   -0.492768
    12  S    0.285886
    13  C    0.084654
    14  N   -0.376503
    15  N   -0.934408
    16  H    0.182745
    17  H    0.439054
    18  H    0.399427
 Sum of Mulliken atomic charges =   0.00000

 Dipole moment (field-independent basis, Debye):
    X=              4.1253    Y=             -2.0532    Z=              1.5085  Tot=              4.8487
 Quadrupole moment (field-independent basis, Debye-Ang):
   XX=            -89.2713   YY=            -79.2415   ZZ=            -67.5851
   XY=              6.4400   XZ=              2.5870   YZ=             -8.6365

 Normal termination of Gaussian 09 at Wed Feb 19 12:34:40 2020.
