 Gaussian 09, Revision A.02,
 Gaussian 09:  EM64L-G09RevA.02 11-Jun-2009

 ----------------------------------------------
 #P opt=(,maxcycle=400) HF/6-31G* MaxDisk=100GB
 ----------------------------------------------

 -------------------------------------------------------------------
 ModifiedRes Rotatable Bond Optimization on g2-node38.bme.utexas.edu
 -------------------------------------------------------------------
 Symbolic Z-matrix:
 Charge =  0 Multiplicity = 1

 SCF Done:  E(RHF) =  -903.994889785     A.U. after   16 cycles
 SCF Done:  E(RHF) =  -904.008481478     A.U. after   14 cycles
 SCF Done:  E(RHF) =  -904.008335963     A.U. after   15 cycles
 SCF Done:  E(RHF) =  -904.009942818     A.U. after   13 cycles
 SCF Done:  E(RHF) =  -904.011141395     A.U. after   16 cycles
 SCF Done:  E(RHF) =  -903.953175959     A.U. after   16 cycles
 SCF Done:  E(RHF) =  -904.010797790     A.U. after   17 cycles
 SCF Done:  E(RHF) =  -904.011396309     A.U. after   14 cycles
 SCF Done:  E(RHF) =  -904.011723047     A.U. after   14 cycles
 SCF Done:  E(RHF) =  -904.001019587     A.U. after   15 cycles
 SCF Done:  E(RHF) =  -904.013562994     A.U. after   15 cycles
 SCF Done:  E(RHF) =  -904.013704237     A.U. after   12 cycles
 SCF Done:  E(RHF) =  -904.013783457     A.U. after   13 cycles
 SCF Done:  E(RHF) =  -904.013899781     A.U. after   13 cycles
 SCF Done:  E(RHF) =  -904.013907415     A.U. after   12 cycles
 SCF Done:  E(RHF) =  -904.013911969     A.U. after   10 cycles
 SCF Done:  E(RHF) =  -904.013913221     A.U. after   11 cycles
 SCF Done:  E(RHF) =  -904.013914067     A.U. after   10 cycles
 SCF Done:  E(RHF) =  -904.013914613     A.U. after   10 cycles
 SCF Done:  E(RHF) =  -904.013914744     A.U. after    9 cycles
 Optimization completed.
    -- Stationary point found.

                         Standard orientation:
 ---------------------------------------------------------------------
 Center     Atomic      Atomic             Coordinates (Angstroms)
 Number     Number       Type             X           Y           Z
 ---------------------------------------------------------------------
      1          6           0       -0.822136    2.108454    0.151428
      2          8           0       -1.587280    2.281484   -0.756048
      3          7           0       -0.310450    0.911910    0.497979
      4          1           0        0.263703    0.862024    1.310388
      5          6           0       -0.571519   -0.295261   -0.264217
      6          1           0       -0.707288    0.006497   -1.293808
      7          6           0       -1.860782   -0.979373    0.220529
      8          8           0       -1.830156   -2.008965    0.836047
      9          1           0        0.768151   -1.590394    0.852976
     10          1           0        0.342812   -2.176691   -0.723586
     11          6           0        0.585963   -1.284292   -0.165539
     12         16           0        2.151758   -0.694212   -0.908526
     13          6           0        2.756093    0.251178    0.377603
     14          7           0        3.159666    0.880373    1.235438
     15          7           0       -2.990375   -0.333581   -0.113321
     16          1           0       -0.474984    2.922567    0.783325
     17          1           0       -2.967041    0.567907   -0.538998
     18          1           0       -3.851587   -0.679822    0.246636
 ---------------------------------------------------------------------

 The electronic state is 1-A.
 Alpha  occ. eigenvalues --  -92.01530 -20.56118 -20.54468 -15.62384 -15.59757
 Alpha  occ. eigenvalues --  -15.59215 -11.37664 -11.36829 -11.31557 -11.31111
 Alpha  occ. eigenvalues --  -11.30685  -9.02432  -6.70740  -6.70544  -6.70348
 Alpha  occ. eigenvalues --   -1.42550  -1.41139  -1.27861  -1.25262  -1.22719
 Alpha  occ. eigenvalues --   -1.12302  -1.03229  -0.91696  -0.86305  -0.81125
 Alpha  occ. eigenvalues --   -0.76717  -0.75224  -0.71333  -0.69136  -0.67523
 Alpha  occ. eigenvalues --   -0.63660  -0.63433  -0.60081  -0.59473  -0.58292
 Alpha  occ. eigenvalues --   -0.57130  -0.56452  -0.53926  -0.53143  -0.47092
 Alpha  occ. eigenvalues --   -0.46728  -0.45575  -0.42392  -0.41373  -0.39096
 Alpha virt. eigenvalues --    0.12165   0.16239   0.18120   0.19361   0.20567
 Alpha virt. eigenvalues --    0.21747   0.22686   0.24325   0.25125   0.27289
 Alpha virt. eigenvalues --    0.29342   0.29545   0.32329   0.33665   0.37088

 Mulliken atomic charges:
              1
     1  C    0.520585
     2  O   -0.587252
     3  N   -0.770948
     4  H    0.413969
     5  C   -0.064914
     6  H    0.249177
     7  C    0.771579
     8  O   -0.603426
     9  H    0.253988
    10  H    0.251784
    11  C   -0.520921
    12  S    0.295734
    13  C    0.098989
    14  N   -0.398050
    15  N   -0.936872
    16  H    0.186962
    17  H    0.441594
    18  H    0.398025
 Sum of Mulliken atomic charges =   0.00000

 Dipole moment (field-independent basis, Debye):
    X=             -1.4508    Y=             -0.2233    Z=             -0.6274  Tot=              1.5963
 Quadrupole moment (field-independent basis, Debye-Ang):
   XX=            -76.6662   YY=            -78.7003   ZZ=            -73.3648
   XY=             -4.9458   XZ=             -5.2784   YZ=              7.7300

 Normal termination of Gaussian 09 at Wed Feb 19 12:56:32 2020.
