 Gaussian 09, Revision A.02,
 Gaussian 09:  EM64L-G09RevA.02 11-Jun-2009

 ----------------------------------------------------------------------
 #P MP2/6-311++G** SP SCF=(qc,maxcycle=800) Guess=Indo MaxDisk=100GB Po
 p=NBORead
 ----------------------------------------------------------------------

 ---------------------------------------------------------------------
 ModifiedRes Rotatable Bond SP Calculation on g2-node38.bme.utexas.edu
 ---------------------------------------------------------------------
 Symbolic Z-matrix:
 Charge =  0 Multiplicity = 1

                         Standard orientation:
 ---------------------------------------------------------------------
 Center     Atomic      Atomic             Coordinates (Angstroms)
 Number     Number       Type             X           Y           Z
 ---------------------------------------------------------------------
      1          6           0       -0.975546    2.112611    0.302346
      2          8           0       -1.834483    2.250371   -0.576439
      3          7           0       -0.373409    0.915424    0.551466
      4          1           0        0.244823    0.844684    1.355956
      5          6           0       -0.583123   -0.277617   -0.289322
      6          1           0       -0.774689    0.073788   -1.313846
      7          6           0       -1.820870   -1.062074    0.192260
      8          8           0       -1.672918   -2.145608    0.760249
      9          1           0        0.866203   -1.516112    0.738677
     10          1           0        0.458213   -2.075991   -0.888482
     11          6           0        0.661245   -1.190163   -0.282924
     12         16           0        2.095090   -0.326461   -1.055093
     13          6           0        2.910569    0.128647    0.369238
     14          7           0        3.418411    0.476578    1.382452
     15          7           0       -3.022610   -0.481258   -0.065773
     16          1           0       -0.655570    2.934779    0.960816
     17          1           0       -3.047969    0.439387   -0.497917
     18          1           0       -3.863642   -0.958890    0.229200
 ---------------------------------------------------------------------

 SCF Done:  E(RHF) =  -904.162989421     a.u. after   11 cycles
 E2 =    -0.1756878301D+01 EUMP2 =    -0.90591986772245D+03

 The electronic state is 1-A.
 Alpha  occ. eigenvalues --  -92.03367 -20.55914 -20.54417 -15.63107 -15.60720
 Alpha  occ. eigenvalues --  -15.60071 -11.39140 -11.38127 -11.33049 -11.32470
 Alpha  occ. eigenvalues --  -11.31660  -9.03495  -6.71748  -6.71565  -6.71416
 Alpha  occ. eigenvalues --   -1.41184  -1.39891  -1.27265  -1.23570  -1.22674
 Alpha  occ. eigenvalues --   -1.12371  -1.03566  -0.91899  -0.86676  -0.80930
 Alpha  occ. eigenvalues --   -0.76472  -0.75272  -0.71956  -0.69403  -0.67796
 Alpha  occ. eigenvalues --   -0.63796  -0.63245  -0.60545  -0.59229  -0.58090
 Alpha  occ. eigenvalues --   -0.57277  -0.56386  -0.53731  -0.52771  -0.47296
 Alpha  occ. eigenvalues --   -0.46666  -0.46365  -0.42929  -0.42100  -0.39659
 Alpha virt. eigenvalues --    0.03593   0.04225   0.04975   0.05928   0.06828
 Alpha virt. eigenvalues --    0.07464   0.08451   0.09115   0.09696   0.10235
 Alpha virt. eigenvalues --    0.10785   0.11615   0.12309   0.12903   0.13287

 Mulliken atomic charges:
              1
     1  C    0.279558
     2  O   -0.463755
     3  N   -0.073060
     4  H    0.338208
     5  C   -0.658008
     6  H    0.264395
     7  C    0.296171
     8  O   -0.412429
     9  H    0.258853
    10  H    0.289261
    11  C   -0.395657
    12  S    0.489896
    13  C   -0.367819
    14  N   -0.183844
    15  N   -0.516766
    16  H    0.165692
    17  H    0.323008
    18  H    0.366298
 Sum of Mulliken atomic charges =   0.00000

 Dipole moment (field-independent basis, Debye):
    X=             -1.6431    Y=              0.4049    Z=             -1.2919  Tot=              2.1291
 Quadrupole moment (field-independent basis, Debye-Ang):
   XX=            -80.9113   YY=            -80.4915   ZZ=            -74.2069
   XY=             -1.5134   XZ=             -7.0582   YZ=              8.9748

 Normal termination of Gaussian 09 at Wed Feb 19 13:05:58 2020.
