 Gaussian 09, Revision A.02,
 Gaussian 09:  EM64L-G09RevA.02 11-Jun-2009

 ----------------------------------------------
 #P opt=(,maxcycle=400) HF/6-31G* MaxDisk=100GB
 ----------------------------------------------

 -------------------------------------------------------------------
 ModifiedRes Rotatable Bond Optimization on g2-node38.bme.utexas.edu
 -------------------------------------------------------------------
 Symbolic Z-matrix:
 Charge =  0 Multiplicity = 1

 SCF Done:  E(RHF) =  -903.991740157     A.U. after   16 cycles
 SCF Done:  E(RHF) =  -904.007158759     A.U. after   15 cycles
 SCF Done:  E(RHF) =  -904.009592006     A.U. after   14 cycles
 SCF Done:  E(RHF) =  -904.012013749     A.U. after   15 cycles
 SCF Done:  E(RHF) =  -904.012711124     A.U. after   16 cycles
 SCF Done:  E(RHF) =  -904.012939093     A.U. after   14 cycles
 SCF Done:  E(RHF) =  -904.013443586     A.U. after   14 cycles
 SCF Done:  E(RHF) =  -904.013495353     A.U. after   13 cycles
 SCF Done:  E(RHF) =  -904.013503254     A.U. after   14 cycles
 SCF Done:  E(RHF) =  -904.013589242     A.U. after   12 cycles
 SCF Done:  E(RHF) =  -904.013611146     A.U. after   12 cycles
 SCF Done:  E(RHF) =  -904.013630493     A.U. after   12 cycles
 SCF Done:  E(RHF) =  -904.013634777     A.U. after   11 cycles
 SCF Done:  E(RHF) =  -904.013637331     A.U. after   11 cycles
 SCF Done:  E(RHF) =  -904.013638114     A.U. after   10 cycles
 SCF Done:  E(RHF) =  -904.013638306     A.U. after   10 cycles
 Optimization completed.
    -- Stationary point found.

                         Standard orientation:
 ---------------------------------------------------------------------
 Center     Atomic      Atomic             Coordinates (Angstroms)
 Number     Number       Type             X           Y           Z
 ---------------------------------------------------------------------
      1          6           0        1.736748    1.953293   -0.365655
      2          8           0        2.751029    1.827337    0.262618
      3          7           0        0.683936    1.118452   -0.289699
      4          1           0       -0.058499    1.228701   -0.944807
      5          6           0        0.655257   -0.023344    0.603147
      6          1           0        1.235426    0.248943    1.476672
      7          6           0        1.300806   -1.271093   -0.015816
      8          8           0        0.654036   -2.265430   -0.210607
      9          1           0       -0.738772   -1.179200    1.744795
     10          1           0       -1.171032    0.518252    1.597659
     11          6           0       -0.760418   -0.333025    1.076896
     12         16           0       -1.912956   -0.776587   -0.288355
     13          6           0       -3.012743    0.527892   -0.150800
     14          7           0       -3.747513    1.394476   -0.090444
     15          7           0        2.607209   -1.158428   -0.292875
     16          1           0        1.583546    2.774380   -1.062625
     17          1           0        3.118842   -0.327573   -0.088852
     18          1           0        3.073945   -1.937201   -0.700758
 ---------------------------------------------------------------------

 The electronic state is 1-A.
 Alpha  occ. eigenvalues --  -92.00887 -20.56490 -20.55082 -15.62678 -15.59759
 Alpha  occ. eigenvalues --  -15.58733 -11.38088 -11.37287 -11.31852 -11.30461
 Alpha  occ. eigenvalues --  -11.29876  -9.01707  -6.69987  -6.69798  -6.69607
 Alpha  occ. eigenvalues --   -1.42942  -1.41663  -1.28165  -1.24221  -1.23243
 Alpha  occ. eigenvalues --   -1.11855  -1.03075  -0.91571  -0.86698  -0.81412
 Alpha  occ. eigenvalues --   -0.77453  -0.75565  -0.71205  -0.69783  -0.66924
 Alpha  occ. eigenvalues --   -0.64077  -0.63062  -0.60508  -0.59495  -0.58658
 Alpha  occ. eigenvalues --   -0.57501  -0.55686  -0.52798  -0.52569  -0.47578
 Alpha  occ. eigenvalues --   -0.46024  -0.45694  -0.42896  -0.41552  -0.38587
 Alpha virt. eigenvalues --    0.13442   0.15900   0.18658   0.19699   0.20242
 Alpha virt. eigenvalues --    0.22229   0.23090   0.23824   0.24876   0.27934
 Alpha virt. eigenvalues --    0.28427   0.30353   0.32400   0.34267   0.36976

 Mulliken atomic charges:
              1
     1  C    0.519795
     2  O   -0.587883
     3  N   -0.765681
     4  H    0.419887
     5  C   -0.081412
     6  H    0.251374
     7  C    0.780398
     8  O   -0.607497
     9  H    0.251956
    10  H    0.248110
    11  C   -0.501473
    12  S    0.307954
    13  C    0.066392
    14  N   -0.391712
    15  N   -0.938500
    16  H    0.183893
    17  H    0.442389
    18  H    0.402010
 Sum of Mulliken atomic charges =   0.00000

 Dipole moment (field-independent basis, Debye):
    X=              3.1434    Y=              0.2675    Z=             -0.0465  Tot=              3.1551
 Quadrupole moment (field-independent basis, Debye-Ang):
   XX=            -87.0023   YY=            -79.3813   ZZ=            -65.8456
   XY=              0.1820   XZ=             -4.6189   YZ=             -4.7030

 Normal termination of Gaussian 09 at Wed Feb 19 12:30:21 2020.
