 Gaussian 09, Revision A.02,
 Gaussian 09:  EM64L-G09RevA.02 11-Jun-2009

 ----------------------------------------------
 #P opt=(,maxcycle=400) HF/6-31G* MaxDisk=100GB
 ----------------------------------------------

 -------------------------------------------------------------------
 ModifiedRes Rotatable Bond Optimization on g2-node38.bme.utexas.edu
 -------------------------------------------------------------------
 Symbolic Z-matrix:
 Charge =  0 Multiplicity = 1

 SCF Done:  E(RHF) =  -903.996296674     A.U. after   16 cycles
 SCF Done:  E(RHF) =  -904.010209382     A.U. after   14 cycles
 SCF Done:  E(RHF) =  -904.009274407     A.U. after   14 cycles
 SCF Done:  E(RHF) =  -904.011180471     A.U. after   13 cycles
 SCF Done:  E(RHF) =  -904.011246329     A.U. after   13 cycles
 SCF Done:  E(RHF) =  -904.011263061     A.U. after   12 cycles
 SCF Done:  E(RHF) =  -904.011340820     A.U. after   12 cycles
 SCF Done:  E(RHF) =  -904.011397035     A.U. after   12 cycles
 SCF Done:  E(RHF) =  -904.011426732     A.U. after   13 cycles
 SCF Done:  E(RHF) =  -904.011460075     A.U. after   12 cycles
 SCF Done:  E(RHF) =  -904.011476128     A.U. after   12 cycles
 SCF Done:  E(RHF) =  -904.011479257     A.U. after   11 cycles
 SCF Done:  E(RHF) =  -904.011480527     A.U. after   10 cycles
 SCF Done:  E(RHF) =  -904.011481289     A.U. after   11 cycles
 SCF Done:  E(RHF) =  -904.011481476     A.U. after   10 cycles
 Optimization completed.
    -- Stationary point found.

                         Standard orientation:
 ---------------------------------------------------------------------
 Center     Atomic      Atomic             Coordinates (Angstroms)
 Number     Number       Type             X           Y           Z
 ---------------------------------------------------------------------
      1          6           0        1.915708   -1.808484    0.474798
      2          8           0        2.539656   -1.848410   -0.547118
      3          7           0        0.972216   -0.886701    0.757372
      4          1           0        0.595766   -0.860855    1.679576
      5          6           0        0.605096    0.165418   -0.176233
      6          1           0        0.716571   -0.245046   -1.170480
      7          6           0        1.544240    1.374195   -0.029461
      8          8           0        1.191314    2.377438    0.523603
      9          1           0       -0.966846    1.028011    1.031442
     10          1           0       -1.092579    1.372446   -0.678065
     11          6           0       -0.834721    0.613917    0.044023
     12         16           0       -1.956518   -0.821292   -0.178026
     13          6           0       -3.448530    0.002205   -0.101838
     14          7           0       -4.456219    0.526850   -0.052512
     15          7           0        2.762918    1.195883   -0.567344
     16          1           0        2.059790   -2.532932    1.273485
     17          1           0        3.054577    0.305670   -0.908418
     18          1           0        3.446080    1.905416   -0.421349
 ---------------------------------------------------------------------

 The electronic state is 1-A.
 Alpha  occ. eigenvalues --  -92.01091 -20.56945 -20.54873 -15.63318 -15.59691
 Alpha  occ. eigenvalues --  -15.58908 -11.38516 -11.37292 -11.32195 -11.30402
 Alpha  occ. eigenvalues --  -11.30072  -9.01999  -6.70308  -6.70118  -6.69914
 Alpha  occ. eigenvalues --   -1.43379  -1.41614  -1.28590  -1.24299  -1.23198
 Alpha  occ. eigenvalues --   -1.12245  -1.03304  -0.91356  -0.87054  -0.81770
 Alpha  occ. eigenvalues --   -0.76976  -0.75844  -0.71459  -0.69981  -0.67175
 Alpha  occ. eigenvalues --   -0.64517  -0.62831  -0.62086  -0.58996  -0.58406
 Alpha  occ. eigenvalues --   -0.57102  -0.56108  -0.53407  -0.52338  -0.47403
 Alpha  occ. eigenvalues --   -0.46510  -0.46143  -0.42870  -0.41762  -0.38697
 Alpha virt. eigenvalues --    0.12890   0.15866   0.17635   0.19442   0.20875
 Alpha virt. eigenvalues --    0.21183   0.22428   0.23468   0.24301   0.27395
 Alpha virt. eigenvalues --    0.28399   0.29669   0.32298   0.34511   0.37790

 Mulliken atomic charges:
              1
     1  C    0.521820
     2  O   -0.579175
     3  N   -0.768322
     4  H    0.406893
     5  C   -0.100337
     6  H    0.253878
     7  C    0.775392
     8  O   -0.596768
     9  H    0.246052
    10  H    0.252417
    11  C   -0.492821
    12  S    0.286011
    13  C    0.084639
    14  N   -0.376539
    15  N   -0.934261
    16  H    0.182736
    17  H    0.439003
    18  H    0.399384
 Sum of Mulliken atomic charges =   0.00000

 Dipole moment (field-independent basis, Debye):
    X=              4.1269    Y=             -2.0503    Z=              1.5058  Tot=              4.8479
 Quadrupole moment (field-independent basis, Debye-Ang):
   XX=            -89.2762   YY=            -79.2387   ZZ=            -67.5872
   XY=              6.4325   XZ=              2.5820   YZ=             -8.6406

 Normal termination of Gaussian 09 at Wed Feb 19 12:47:22 2020.
