 Gaussian 09, Revision A.02,
 Gaussian 09:  EM64L-G09RevA.02 11-Jun-2009

 ----------------------------------------------------------------------
 #P MP2/6-311++G** SP SCF=(qc,maxcycle=800) Guess=Indo MaxDisk=100GB Po
 p=NBORead
 ----------------------------------------------------------------------

 ---------------------------------------------------------------------
 ModifiedRes Rotatable Bond SP Calculation on g2-node38.bme.utexas.edu
 ---------------------------------------------------------------------
 Symbolic Z-matrix:
 Charge =  0 Multiplicity = 1

                         Standard orientation:
 ---------------------------------------------------------------------
 Center     Atomic      Atomic             Coordinates (Angstroms)
 Number     Number       Type             X           Y           Z
 ---------------------------------------------------------------------
      1          6           0        1.975894   -1.836712    0.427848
      2          8           0        2.677697   -1.772156   -0.586748
      3          7           0        1.012416   -0.915179    0.714730
      4          1           0        0.632594   -0.912429    1.657264
      5          6           0        0.610929    0.169395   -0.202366
      6          1           0        0.726126   -0.221587   -1.223447
      7          6           0        1.543327    1.392260   -0.037739
      8          8           0        1.063087    2.478441    0.291028
      9          1           0       -0.971117    0.973350    1.060899
     10          1           0       -1.127722    1.364370   -0.663565
     11          6           0       -0.853151    0.582640    0.047965
     12         16           0       -2.000716   -0.846050   -0.187893
     13          6           0       -3.491423   -0.035135   -0.068158
     14          7           0       -4.544162    0.504173    0.011525
     15          7           0        2.865563    1.184316   -0.274012
     16          1           0        2.099449   -2.621872    1.190146
     17          1           0        3.177283    0.289659   -0.643198
     18          1           0        3.498400    1.967165   -0.177047
 ---------------------------------------------------------------------

 SCF Done:  E(RHF) =  -904.161425888     a.u. after   11 cycles
 E2 =    -0.1755307666D+01 EUMP2 =    -0.90591673355409D+03

 The electronic state is 1-A.
 Alpha  occ. eigenvalues --  -92.02901 -20.56789 -20.54739 -15.63949 -15.60327
 Alpha  occ. eigenvalues --  -15.60141 -11.39995 -11.38641 -11.33988 -11.31657
 Alpha  occ. eigenvalues --  -11.31536  -9.03033  -6.71291  -6.71109  -6.70956
 Alpha  occ. eigenvalues --   -1.42051  -1.40310  -1.28130  -1.22954  -1.22754
 Alpha  occ. eigenvalues --   -1.12179  -1.03844  -0.91776  -0.87296  -0.81631
 Alpha  occ. eigenvalues --   -0.76839  -0.76035  -0.71414  -0.70441  -0.67670
 Alpha  occ. eigenvalues --   -0.64499  -0.62780  -0.61591  -0.59474  -0.58937
 Alpha  occ. eigenvalues --   -0.56893  -0.56343  -0.53318  -0.51953  -0.48110
 Alpha  occ. eigenvalues --   -0.47136  -0.45749  -0.43277  -0.42670  -0.39151
 Alpha virt. eigenvalues --    0.02567   0.04240   0.05062   0.05296   0.07191
 Alpha virt. eigenvalues --    0.07603   0.08424   0.08625   0.09646   0.10502
 Alpha virt. eigenvalues --    0.10785   0.11779   0.12628   0.12800   0.13347

 Mulliken atomic charges:
              1
     1  C    0.276029
     2  O   -0.447700
     3  N   -0.107203
     4  H    0.322725
     5  C   -0.346904
     6  H    0.272139
     7  C    0.208986
     8  O   -0.403796
     9  H    0.263881
    10  H    0.235352
    11  C   -0.397056
    12  S    0.125671
    13  C   -0.128048
    14  N   -0.192993
    15  N   -0.538415
    16  H    0.160736
    17  H    0.326499
    18  H    0.370097
 Sum of Mulliken atomic charges =   0.00000

 Dipole moment (field-independent basis, Debye):
    X=              4.2929    Y=             -2.5787    Z=              1.8242  Tot=              5.3298
 Quadrupole moment (field-independent basis, Debye-Ang):
   XX=            -93.6372   YY=            -80.8155   ZZ=            -68.6798
   XY=              7.2140   XZ=              4.1278   YZ=             -8.3032

 Normal termination of Gaussian 09 at Wed Feb 19 12:54:11 2020.
