 Gaussian 09, Revision A.02,
 Gaussian 09:  EM64L-G09RevA.02 11-Jun-2009

 ----------------------------------------------
 #P opt=(,maxcycle=400) HF/6-31G* MaxDisk=100GB
 ----------------------------------------------

 -------------------------------------------------------------------
 ModifiedRes Rotatable Bond Optimization on g2-node38.bme.utexas.edu
 -------------------------------------------------------------------
 Symbolic Z-matrix:
 Charge =  0 Multiplicity = 1

 SCF Done:  E(RHF) =  -903.996084696     A.U. after   16 cycles
 SCF Done:  E(RHF) =  -904.010034489     A.U. after   14 cycles
 SCF Done:  E(RHF) =  -904.010772604     A.U. after   14 cycles
 SCF Done:  E(RHF) =  -904.010587070     A.U. after   13 cycles
 SCF Done:  E(RHF) =  -904.011306510     A.U. after   13 cycles
 SCF Done:  E(RHF) =  -904.011390109     A.U. after   13 cycles
 SCF Done:  E(RHF) =  -904.011424752     A.U. after   12 cycles
 SCF Done:  E(RHF) =  -904.011442006     A.U. after   12 cycles
 SCF Done:  E(RHF) =  -904.011466109     A.U. after   12 cycles
 SCF Done:  E(RHF) =  -904.011479686     A.U. after   11 cycles
 SCF Done:  E(RHF) =  -904.011480989     A.U. after   11 cycles
 SCF Done:  E(RHF) =  -904.011481511     A.U. after   10 cycles
 SCF Done:  E(RHF) =  -904.011481520     A.U. after    8 cycles
 Optimization completed.
    -- Stationary point found.

                         Standard orientation:
 ---------------------------------------------------------------------
 Center     Atomic      Atomic             Coordinates (Angstroms)
 Number     Number       Type             X           Y           Z
 ---------------------------------------------------------------------
      1          6           0        1.915584   -1.808629    0.474477
      2          8           0        2.538979   -1.848756   -0.547776
      3          7           0        0.972576   -0.886543    0.757554
      4          1           0        0.596452   -0.860613    1.679880
      5          6           0        0.605124    0.165512   -0.176114
      6          1           0        0.716498   -0.245106   -1.170288
      7          6           0        1.544238    1.374259   -0.029475
      8          8           0        1.191181    2.377588    0.523363
      9          1           0       -0.966660    1.028278    1.031606
     10          1           0       -1.092694    1.372198   -0.677972
     11          6           0       -0.834701    0.613891    0.044307
     12         16           0       -1.956442   -0.821391   -0.177223
     13          6           0       -3.448502    0.002084   -0.102150
     14          7           0       -4.456003    0.527149   -0.053501
     15          7           0        2.763025    1.195955   -0.567170
     16          1           0        2.059798   -2.533214    1.272996
     17          1           0        3.054643    0.305851   -0.908564
     18          1           0        3.446115    1.905560   -0.421220
 ---------------------------------------------------------------------

 The electronic state is 1-A.
 Alpha  occ. eigenvalues --  -92.01091 -20.56944 -20.54873 -15.63318 -15.59692
 Alpha  occ. eigenvalues --  -15.58908 -11.38515 -11.37293 -11.32195 -11.30401
 Alpha  occ. eigenvalues --  -11.30072  -9.01999  -6.70308  -6.70118  -6.69914
 Alpha  occ. eigenvalues --   -1.43377  -1.41614  -1.28588  -1.24299  -1.23198
 Alpha  occ. eigenvalues --   -1.12245  -1.03305  -0.91357  -0.87053  -0.81771
 Alpha  occ. eigenvalues --   -0.76977  -0.75843  -0.71458  -0.69982  -0.67175
 Alpha  occ. eigenvalues --   -0.64517  -0.62831  -0.62085  -0.58995  -0.58407
 Alpha  occ. eigenvalues --   -0.57101  -0.56108  -0.53406  -0.52338  -0.47402
 Alpha  occ. eigenvalues --   -0.46509  -0.46143  -0.42870  -0.41763  -0.38697
 Alpha virt. eigenvalues --    0.12892   0.15867   0.17635   0.19443   0.20875
 Alpha virt. eigenvalues --    0.21182   0.22430   0.23471   0.24298   0.27396
 Alpha virt. eigenvalues --    0.28398   0.29670   0.32295   0.34511   0.37790

 Mulliken atomic charges:
              1
     1  C    0.521815
     2  O   -0.579181
     3  N   -0.768352
     4  H    0.406893
     5  C   -0.100357
     6  H    0.253913
     7  C    0.775435
     8  O   -0.596772
     9  H    0.246061
    10  H    0.252412
    11  C   -0.492806
    12  S    0.286002
    13  C    0.084636
    14  N   -0.376526
    15  N   -0.934275
    16  H    0.182733
    17  H    0.438968
    18  H    0.399401
 Sum of Mulliken atomic charges =   0.00000

 Dipole moment (field-independent basis, Debye):
    X=              4.1279    Y=             -2.0498    Z=              1.5078  Tot=              4.8492
 Quadrupole moment (field-independent basis, Debye-Ang):
   XX=            -89.2660   YY=            -79.2422   ZZ=            -67.5874
   XY=              6.4357   XZ=              2.5771   YZ=             -8.6406

 Normal termination of Gaussian 09 at Wed Feb 19 12:40:23 2020.
