 Gaussian 09, Revision A.02,
 Gaussian 09:  EM64L-G09RevA.02 11-Jun-2009

 ----------------------------------------------------------------------
 #P MP2/6-311++G** SP SCF=(qc,maxcycle=800) Guess=Indo MaxDisk=100GB Po
 p=NBORead
 ----------------------------------------------------------------------

 ---------------------------------------------------------------------
 ModifiedRes Rotatable Bond SP Calculation on g2-node38.bme.utexas.edu
 ---------------------------------------------------------------------
 Symbolic Z-matrix:
 Charge =  0 Multiplicity = 1

                         Standard orientation:
 ---------------------------------------------------------------------
 Center     Atomic      Atomic             Coordinates (Angstroms)
 Number     Number       Type             X           Y           Z
 ---------------------------------------------------------------------
      1          6           0       -0.897550    2.323109    0.602276
      2          8           0       -0.329497    2.762760   -0.399048
      3          7           0       -1.131065    0.992398    0.797381
      4          1           0       -1.720172    0.750663    1.589690
      5          6           0       -0.911222   -0.039191   -0.228419
      6          1           0       -0.965780    0.431474   -1.220621
      7          6           0       -2.081267   -1.057362   -0.206672
      8          8           0       -3.085365   -0.817715   -0.872618
      9          1           0        0.554301   -1.114348    0.986326
     10          1           0        0.542853   -1.564234   -0.731745
     11          6           0        0.448729   -0.731324   -0.029976
     12         16           0        1.848353    0.439860   -0.341250
     13          6           0        3.129960   -0.620550    0.013965
     14          7           0        4.002026   -1.392724    0.231940
     15          7           0       -1.965349   -2.183823    0.550620
     16          1           0       -1.246103    2.971636    1.421620
     17          1           0       -1.142544   -2.408489    1.094961
     18          1           0       -2.748493   -2.823874    0.526466
 ---------------------------------------------------------------------

 SCF Done:  E(RHF) =  -904.148621086     a.u. after   12 cycles
 E2 =    -0.1757872518D+01 EUMP2 =    -0.90590649360400D+03

 The electronic state is 1-A.
 Alpha  occ. eigenvalues --  -92.02479 -20.55709 -20.55244 -15.63075 -15.62909
 Alpha  occ. eigenvalues --  -15.59849 -11.39989 -11.38512 -11.33874 -11.31986
 Alpha  occ. eigenvalues --  -11.31360  -9.02582  -6.70815  -6.70635  -6.70468
 Alpha  occ. eigenvalues --   -1.41708  -1.40295  -1.27417  -1.24903  -1.22645
 Alpha  occ. eigenvalues --   -1.12240  -1.03736  -0.92174  -0.86119  -0.83294
 Alpha  occ. eigenvalues --   -0.79034  -0.74968  -0.71434  -0.69806  -0.67574
 Alpha  occ. eigenvalues --   -0.64768  -0.62732  -0.62024  -0.60016  -0.58603
 Alpha  occ. eigenvalues --   -0.57026  -0.56045  -0.53423  -0.51788  -0.47711
 Alpha  occ. eigenvalues --   -0.45795  -0.45034  -0.44875  -0.42565  -0.38861
 Alpha virt. eigenvalues --    0.01818   0.03533   0.05192   0.05515   0.06637
 Alpha virt. eigenvalues --    0.07526   0.07939   0.08914   0.09678   0.10929
 Alpha virt. eigenvalues --    0.11747   0.11948   0.12773   0.12893   0.13128

 Mulliken atomic charges:
              1
     1  C    0.248228
     2  O   -0.412267
     3  N   -0.126374
     4  H    0.347295
     5  C   -0.290161
     6  H    0.322028
     7  C    0.150244
     8  O   -0.389841
     9  H    0.154365
    10  H    0.236097
    11  C   -0.372846
    12  S    0.176977
    13  C   -0.146186
    14  N   -0.213504
    15  N   -0.476764
    16  H    0.142026
    17  H    0.278092
    18  H    0.372595
 Sum of Mulliken atomic charges =   0.00000

 Dipole moment (field-independent basis, Debye):
    X=             -3.6152    Y=             -2.5214    Z=              4.5998  Tot=              6.3707
 Quadrupole moment (field-independent basis, Debye-Ang):
   XX=            -99.2383   YY=            -72.4662   ZZ=            -69.5101
   XY=              7.7619   XZ=            -12.1033   YZ=              3.7178

 Normal termination of Gaussian 09 at Wed Feb 19 12:55:02 2020.
