 Gaussian 09, Revision A.02,
 Gaussian 09:  EM64L-G09RevA.02 11-Jun-2009

 ----------------------------------------------------------------------
 #P MP2/6-311++G** SP SCF=(qc,maxcycle=800) Guess=Indo MaxDisk=100GB Po
 p=NBORead
 ----------------------------------------------------------------------

 ---------------------------------------------------------------------
 ModifiedRes Rotatable Bond SP Calculation on g2-node38.bme.utexas.edu
 ---------------------------------------------------------------------
 Symbolic Z-matrix:
 Charge =  0 Multiplicity = 1

                         Standard orientation:
 ---------------------------------------------------------------------
 Center     Atomic      Atomic             Coordinates (Angstroms)
 Number     Number       Type             X           Y           Z
 ---------------------------------------------------------------------
      1          6           0        1.984695   -1.855996    0.342720
      2          8           0        2.701281   -1.750034   -0.655690
      3          7           0        1.025215   -0.939283    0.654108
      4          1           0        0.655489   -0.961438    1.600478
      5          6           0        0.604816    0.172891   -0.224327
      6          1           0        0.707211   -0.186507   -1.257637
      7          6           0        1.525457    1.407524   -0.044973
      8          8           0        1.015999    2.529833   -0.029265
      9          1           0       -0.958706    0.924116    1.094833
     10          1           0       -1.150219    1.364766   -0.614905
     11          6           0       -0.856381    0.564604    0.068813
     12         16           0       -2.000102   -0.864090   -0.184529
     13          6           0       -3.489490   -0.060467   -0.010832
     14          7           0       -4.518228    0.520927    0.084469
     15          7           0        2.862088    1.193851    0.084921
     16          1           0        2.095733   -2.672034    1.073917
     17          1           0        3.262532    0.312169   -0.219919
     18          1           0        3.453247    2.006169    0.202443
 ---------------------------------------------------------------------

 SCF Done:  E(RHF) =  -904.159174130     a.u. after   11 cycles
 E2 =    -0.1755274191D+01 EUMP2 =    -0.90591444832127D+03

 The electronic state is 1-A.
 Alpha  occ. eigenvalues --  -92.02947 -20.56745 -20.54824 -15.63736 -15.60425
 Alpha  occ. eigenvalues --  -15.60187 -11.39891 -11.38778 -11.34163 -11.31696
 Alpha  occ. eigenvalues --  -11.31629  -9.03078  -6.71335  -6.71155  -6.71001
 Alpha  occ. eigenvalues --   -1.42095  -1.40435  -1.28074  -1.22973  -1.22795
 Alpha  occ. eigenvalues --   -1.12232  -1.03896  -0.91782  -0.87087  -0.81812
 Alpha  occ. eigenvalues --   -0.76907  -0.76093  -0.71171  -0.70569  -0.67517
 Alpha  occ. eigenvalues --   -0.64475  -0.62881  -0.61067  -0.60235  -0.59212
 Alpha  occ. eigenvalues --   -0.56953  -0.55915  -0.53337  -0.52006  -0.48104
 Alpha  occ. eigenvalues --   -0.47163  -0.45878  -0.43677  -0.42382  -0.39229
 Alpha virt. eigenvalues --    0.02482   0.04331   0.04941   0.05271   0.07167
 Alpha virt. eigenvalues --    0.07727   0.08266   0.08539   0.09892   0.10355
 Alpha virt. eigenvalues --    0.10730   0.11802   0.12563   0.12900   0.13404

 Mulliken atomic charges:
              1
     1  C    0.240354
     2  O   -0.433515
     3  N   -0.124088
     4  H    0.317104
     5  C   -0.372664
     6  H    0.273128
     7  C    0.186838
     8  O   -0.396646
     9  H    0.258865
    10  H    0.236846
    11  C   -0.297945
    12  S    0.134924
    13  C   -0.123731
    14  N   -0.193470
    15  N   -0.536789
    16  H    0.157829
    17  H    0.308373
    18  H    0.364588
 Sum of Mulliken atomic charges =   0.00000

 Dipole moment (field-independent basis, Debye):
    X=              4.2713    Y=             -2.7252    Z=              2.5627  Tot=              5.6779
 Quadrupole moment (field-independent basis, Debye-Ang):
   XX=            -93.1052   YY=            -80.7070   ZZ=            -69.3588
   XY=              7.5267   XZ=              6.4007   YZ=             -5.9857

 Normal termination of Gaussian 09 at Wed Feb 19 12:54:21 2020.
