 Gaussian 09, Revision A.02,
 Gaussian 09:  EM64L-G09RevA.02 11-Jun-2009

 ----------------------------------------------------------------------
 #P MP2/6-311++G** SP SCF=(qc,maxcycle=800) Guess=Indo MaxDisk=100GB Po
 p=NBORead
 ----------------------------------------------------------------------

 ---------------------------------------------------------------------
 ModifiedRes Rotatable Bond SP Calculation on g2-node38.bme.utexas.edu
 ---------------------------------------------------------------------
 Symbolic Z-matrix:
 Charge =  0 Multiplicity = 1

                         Standard orientation:
 ---------------------------------------------------------------------
 Center     Atomic      Atomic             Coordinates (Angstroms)
 Number     Number       Type             X           Y           Z
 ---------------------------------------------------------------------
      1          6           0       -2.309391   -1.701426   -0.299353
      2          8           0       -3.285089   -1.182558    0.254776
      3          7           0       -1.051477   -1.181387   -0.217205
      4          1           0       -0.348135   -1.542194   -0.857323
      5          6           0       -0.686634   -0.028476    0.631500
      6          1           0       -1.322746   -0.043444    1.530511
      7          6           0       -0.985478    1.274094   -0.154083
      8          8           0       -0.092425    2.057103   -0.465677
      9          1           0        0.797488    0.198766    2.163511
     10          1           0        1.061106   -1.217541    1.101269
     11          6           0        0.776212   -0.164170    1.133911
     12         16           0        2.135222    0.716496    0.227370
     13          6           0        3.023608   -0.629407   -0.324079
     14          7           0        3.586573   -1.590102   -0.730355
     15          7           0       -2.293506    1.494279   -0.453692
     16          1           0       -2.389423   -2.602939   -0.926949
     17          1           0       -3.005641    0.850992   -0.116637
     18          1           0       -2.537127    2.332857   -0.963713
 ---------------------------------------------------------------------

 SCF Done:  E(RHF) =  -904.146399703     a.u. after   11 cycles
 E2 =    -0.1757741548D+01 EUMP2 =    -0.90590414125066D+03

 The electronic state is 1-A.
 Alpha  occ. eigenvalues --  -92.01615 -20.56484 -20.54526 -15.63653 -15.59831
 Alpha  occ. eigenvalues --  -15.59074 -11.39728 -11.38437 -11.33932 -11.31797
 Alpha  occ. eigenvalues --  -11.30776  -9.01702  -6.69922  -6.69730  -6.69585
 Alpha  occ. eigenvalues --   -1.41766  -1.40518  -1.27760  -1.22549  -1.22053
 Alpha  occ. eigenvalues --   -1.11429  -1.03215  -0.91987  -0.87002  -0.81062
 Alpha  occ. eigenvalues --   -0.76972  -0.75466  -0.70682  -0.70097  -0.67855
 Alpha  occ. eigenvalues --   -0.64121  -0.62397  -0.61653  -0.59479  -0.58457
 Alpha  occ. eigenvalues --   -0.56869  -0.55471  -0.52530  -0.51581  -0.48014
 Alpha  occ. eigenvalues --   -0.46839  -0.44644  -0.43063  -0.42832  -0.37014
 Alpha virt. eigenvalues --    0.03020   0.03752   0.04733   0.06253   0.06880
 Alpha virt. eigenvalues --    0.07597   0.08282   0.08974   0.09958   0.10656
 Alpha virt. eigenvalues --    0.11251   0.11452   0.12324   0.13043   0.13457

 Mulliken atomic charges:
              1
     1  C    0.307057
     2  O   -0.462814
     3  N   -0.207595
     4  H    0.337421
     5  C    0.246465
     6  H    0.310713
     7  C   -0.059333
     8  O   -0.344406
     9  H    0.240443
    10  H    0.206508
    11  C   -0.889907
    12  S    0.506256
    13  C   -0.300808
    14  N   -0.208304
    15  N   -0.525325
    16  H    0.163649
    17  H    0.325423
    18  H    0.354556
 Sum of Mulliken atomic charges =   0.00000

 Dipole moment (field-independent basis, Debye):
    X=             -3.6036    Y=             -0.7517    Z=              1.2889  Tot=              3.9003
 Quadrupole moment (field-independent basis, Debye-Ang):
   XX=            -94.0753   YY=            -75.0388   ZZ=            -68.5292
   XY=              2.4612   XZ=              9.4820   YZ=              2.0791

 Normal termination of Gaussian 09 at Wed Feb 19 12:41:28 2020.
