 Gaussian 09, Revision A.02,
 Gaussian 09:  EM64L-G09RevA.02 11-Jun-2009

 ----------------------------------------------
 #P opt=(,maxcycle=400) HF/6-31G* MaxDisk=100GB
 ----------------------------------------------

 -------------------------------------------------------------------
 ModifiedRes Rotatable Bond Optimization on g2-node38.bme.utexas.edu
 -------------------------------------------------------------------
 Symbolic Z-matrix:
 Charge =  0 Multiplicity = 1

 SCF Done:  E(RHF) =  -903.997274338     A.U. after   16 cycles
 SCF Done:  E(RHF) =  -904.011793414     A.U. after   14 cycles
 SCF Done:  E(RHF) =  -904.012834108     A.U. after   16 cycles
 SCF Done:  E(RHF) =  -904.012914795     A.U. after   15 cycles
 SCF Done:  E(RHF) =  -904.013485581     A.U. after   16 cycles
 SCF Done:  E(RHF) =  -904.013845003     A.U. after   14 cycles
 SCF Done:  E(RHF) =  -904.013884863     A.U. after   12 cycles
 SCF Done:  E(RHF) =  -904.013878297     A.U. after   12 cycles
 SCF Done:  E(RHF) =  -904.013903963     A.U. after   12 cycles
 SCF Done:  E(RHF) =  -904.013911893     A.U. after   11 cycles
 SCF Done:  E(RHF) =  -904.013913350     A.U. after   11 cycles
 SCF Done:  E(RHF) =  -904.013914220     A.U. after   11 cycles
 SCF Done:  E(RHF) =  -904.013914560     A.U. after    9 cycles
 SCF Done:  E(RHF) =  -904.013914679     A.U. after    9 cycles
 SCF Done:  E(RHF) =  -904.013914796     A.U. after    9 cycles
 SCF Done:  E(RHF) =  -904.013914833     A.U. after    9 cycles
 Optimization completed.
    -- Stationary point found.

                         Standard orientation:
 ---------------------------------------------------------------------
 Center     Atomic      Atomic             Coordinates (Angstroms)
 Number     Number       Type             X           Y           Z
 ---------------------------------------------------------------------
      1          6           0       -0.822348    2.108473    0.151116
      2          8           0       -1.588108    2.281019   -0.755938
      3          7           0       -0.310670    0.912070    0.498085
      4          1           0        0.265333    0.862881    1.309213
      5          6           0       -0.571377   -0.295309   -0.263964
      6          1           0       -0.706951    0.006177   -1.293670
      7          6           0       -1.860763   -0.979365    0.220531
      8          8           0       -1.830318   -2.009140    0.835773
      9          1           0        0.768389   -1.589692    0.853939
     10          1           0        0.343071   -2.176968   -0.722264
     11          6           0        0.586162   -1.284224   -0.164755
     12         16           0        2.151907   -0.694632   -0.908258
     13          6           0        2.756515    0.251569    0.377113
     14          7           0        3.159629    0.881246    1.234803
     15          7           0       -2.990253   -0.333473   -0.113355
     16          1           0       -0.474667    2.922934    0.782253
     17          1           0       -2.966813    0.567939   -0.539182
     18          1           0       -3.851541   -0.679956    0.246165
 ---------------------------------------------------------------------

 The electronic state is 1-A.
 Alpha  occ. eigenvalues --  -92.01533 -20.56118 -20.54464 -15.62384 -15.59762
 Alpha  occ. eigenvalues --  -15.59211 -11.37663 -11.36826 -11.31557 -11.31116
 Alpha  occ. eigenvalues --  -11.30688  -9.02435  -6.70743  -6.70547  -6.70351
 Alpha  occ. eigenvalues --   -1.42550  -1.41135  -1.27860  -1.25267  -1.22716
 Alpha  occ. eigenvalues --   -1.12304  -1.03231  -0.91698  -0.86306  -0.81121
 Alpha  occ. eigenvalues --   -0.76716  -0.75225  -0.71336  -0.69135  -0.67524
 Alpha  occ. eigenvalues --   -0.63660  -0.63431  -0.60080  -0.59477  -0.58290
 Alpha  occ. eigenvalues --   -0.57132  -0.56451  -0.53930  -0.53147  -0.47095
 Alpha  occ. eigenvalues --   -0.46726  -0.45576  -0.42387  -0.41373  -0.39099
 Alpha virt. eigenvalues --    0.12163   0.16242   0.18114   0.19359   0.20563
 Alpha virt. eigenvalues --    0.21747   0.22689   0.24329   0.25125   0.27290
 Alpha virt. eigenvalues --    0.29344   0.29547   0.32329   0.33668   0.37094

 Mulliken atomic charges:
              1
     1  C    0.520602
     2  O   -0.587304
     3  N   -0.770992
     4  H    0.414010
     5  C   -0.064876
     6  H    0.249125
     7  C    0.771641
     8  O   -0.603476
     9  H    0.253993
    10  H    0.251848
    11  C   -0.520971
    12  S    0.295721
    13  C    0.098938
    14  N   -0.398020
    15  N   -0.936915
    16  H    0.186970
    17  H    0.441679
    18  H    0.398025
 Sum of Mulliken atomic charges =   0.00000

 Dipole moment (field-independent basis, Debye):
    X=             -1.4439    Y=             -0.2224    Z=             -0.6294  Tot=              1.5908
 Quadrupole moment (field-independent basis, Debye-Ang):
   XX=            -76.6670   YY=            -78.6965   ZZ=            -73.3691
   XY=             -4.9444   XZ=             -5.2688   YZ=              7.7237

 Normal termination of Gaussian 09 at Wed Feb 19 13:00:24 2020.
