 Gaussian 09, Revision A.02,
 Gaussian 09:  EM64L-G09RevA.02 11-Jun-2009

 ----------------------------------------------
 #P opt=(,maxcycle=400) HF/6-31G* MaxDisk=100GB
 ----------------------------------------------

 -------------------------------------------------------------------
 ModifiedRes Rotatable Bond Optimization on g2-node38.bme.utexas.edu
 -------------------------------------------------------------------
 Symbolic Z-matrix:
 Charge =  0 Multiplicity = 1

 SCF Done:  E(RHF) =  -903.995570469     A.U. after   16 cycles
 SCF Done:  E(RHF) =  -904.010682616     A.U. after   14 cycles
 SCF Done:  E(RHF) =  -904.009992405     A.U. after   16 cycles
 SCF Done:  E(RHF) =  -904.011843383     A.U. after   13 cycles
 SCF Done:  E(RHF) =  -904.011874843     A.U. after   13 cycles
 SCF Done:  E(RHF) =  -904.011891995     A.U. after   13 cycles
 SCF Done:  E(RHF) =  -904.011997540     A.U. after   12 cycles
 SCF Done:  E(RHF) =  -904.012010895     A.U. after   12 cycles
 SCF Done:  E(RHF) =  -904.012016811     A.U. after   12 cycles
 SCF Done:  E(RHF) =  -904.012023643     A.U. after   11 cycles
 SCF Done:  E(RHF) =  -904.012025832     A.U. after   11 cycles
 SCF Done:  E(RHF) =  -904.012026147     A.U. after   10 cycles
 Optimization completed.
    -- Stationary point found.

                         Standard orientation:
 ---------------------------------------------------------------------
 Center     Atomic      Atomic             Coordinates (Angstroms)
 Number     Number       Type             X           Y           Z
 ---------------------------------------------------------------------
      1          6           0        1.231823    1.926582   -0.825263
      2          8           0        1.568778    2.328948    0.251891
      3          7           0        0.711783    0.705406   -1.055521
      4          1           0        0.525943    0.438404   -1.996146
      5          6           0        0.433880   -0.236460    0.013412
      6          1           0        0.158338    0.341324    0.884891
      7          6           0        1.694023   -1.057798    0.334410
      8          8           0        1.820776   -2.185432   -0.056207
      9          1           0       -0.439554   -1.765118   -1.239692
     10          1           0       -0.851902   -1.901497    0.441974
     11          6           0       -0.693977   -1.194358   -0.357122
     12         16           0       -2.288029   -0.399568   -0.764038
     13          6           0       -2.664102    0.296742    0.747988
     14          7           0       -2.928077    0.767863    1.748909
     15          7           0        2.609054   -0.406128    1.071044
     16          1           0        1.324462    2.529986   -1.725997
     17          1           0        2.526816    0.572565    1.244263
     18          1           0        3.488729   -0.848946    1.218265
 ---------------------------------------------------------------------

 The electronic state is 1-A.
 Alpha  occ. eigenvalues --  -92.01320 -20.56207 -20.54432 -15.62625 -15.59239
 Alpha  occ. eigenvalues --  -15.59192 -11.37823 -11.36813 -11.31509 -11.30580
 Alpha  occ. eigenvalues --  -11.30341  -9.02223  -6.70536  -6.70339  -6.70142
 Alpha  occ. eigenvalues --   -1.42671  -1.41118  -1.27938  -1.24609  -1.22733
 Alpha  occ. eigenvalues --   -1.12235  -1.03037  -0.91642  -0.86471  -0.81125
 Alpha  occ. eigenvalues --   -0.76783  -0.75106  -0.70868  -0.70105  -0.66464
 Alpha  occ. eigenvalues --   -0.63585  -0.62642  -0.61845  -0.59557  -0.57610
 Alpha  occ. eigenvalues --   -0.56978  -0.55493  -0.53822  -0.52752  -0.46784
 Alpha  occ. eigenvalues --   -0.46528  -0.45730  -0.42435  -0.40963  -0.39144
 Alpha virt. eigenvalues --    0.12457   0.16573   0.18347   0.19274   0.20451
 Alpha virt. eigenvalues --    0.21507   0.22781   0.23870   0.24871   0.27222
 Alpha virt. eigenvalues --    0.29132   0.29872   0.32483   0.34212   0.37841

 Mulliken atomic charges:
              1
     1  C    0.523397
     2  O   -0.580440
     3  N   -0.758030
     4  H    0.399552
     5  C   -0.077279
     6  H    0.259625
     7  C    0.772092
     8  O   -0.604961
     9  H    0.243617
    10  H    0.257297
    11  C   -0.519419
    12  S    0.282998
    13  C    0.093556
    14  N   -0.376980
    15  N   -0.930997
    16  H    0.178139
    17  H    0.440712
    18  H    0.397122
 Sum of Mulliken atomic charges =   0.00000

 Dipole moment (field-independent basis, Debye):
    X=              1.8540    Y=             -0.2873    Z=             -4.0646  Tot=              4.4767
 Quadrupole moment (field-independent basis, Debye-Ang):
   XX=            -75.3026   YY=            -82.7248   ZZ=            -68.4620
   XY=              6.2184   XZ=              7.0718   YZ=             -7.7296

 Normal termination of Gaussian 09 at Wed Feb 19 13:00:43 2020.
