 Gaussian 09, Revision A.02,
 Gaussian 09:  EM64L-G09RevA.02 11-Jun-2009

 ----------------------------------------------------------------------
 #P MP2/6-311++G** SP SCF=(qc,maxcycle=800) Guess=Indo MaxDisk=100GB Po
 p=NBORead
 ----------------------------------------------------------------------

 ---------------------------------------------------------------------
 ModifiedRes Rotatable Bond SP Calculation on g2-node38.bme.utexas.edu
 ---------------------------------------------------------------------
 Symbolic Z-matrix:
 Charge =  0 Multiplicity = 1

                         Standard orientation:
 ---------------------------------------------------------------------
 Center     Atomic      Atomic             Coordinates (Angstroms)
 Number     Number       Type             X           Y           Z
 ---------------------------------------------------------------------
      1          6           0        1.994635   -1.886482    0.234371
      2          8           0        2.589577   -1.845360   -0.841315
      3          7           0        1.050201   -0.969821    0.596581
      4          1           0        0.705931   -1.009266    1.552131
      5          6           0        0.616186    0.161142   -0.248227
      6          1           0        0.692003   -0.187167   -1.287340
      7          6           0        1.538909    1.397214   -0.074556
      8          8           0        1.244390    2.418838   -0.696489
      9          1           0       -0.902933    0.915213    1.119592
     10          1           0       -1.127623    1.380807   -0.581147
     11          6           0       -0.827633    0.567615    0.086664
     12         16           0       -1.993214   -0.844972   -0.156371
     13          6           0       -3.465715   -0.022519    0.063824
     14          7           0       -4.482339    0.573365    0.191634
     15          7           0        2.625551    1.333534    0.743303
     16          1           0        2.189979   -2.660957    0.993117
     17          1           0        2.981279    0.460269    1.107581
     18          1           0        3.188866    2.171464    0.807350
 ---------------------------------------------------------------------

 SCF Done:  E(RHF) =  -904.155801529     a.u. after   12 cycles
 E2 =    -0.1755684450D+01 EUMP2 =    -0.90591148597838D+03

 The electronic state is 1-A.
 Alpha  occ. eigenvalues --  -92.03225 -20.56266 -20.54699 -15.63648 -15.61673
 Alpha  occ. eigenvalues --  -15.60390 -11.39386 -11.39119 -11.34164 -11.32102
 Alpha  occ. eigenvalues --  -11.31883  -9.03351  -6.71605  -6.71426  -6.71269
 Alpha  occ. eigenvalues --   -1.41594  -1.40515  -1.28212  -1.23477  -1.23024
 Alpha  occ. eigenvalues --   -1.12582  -1.04067  -0.91949  -0.86865  -0.82684
 Alpha  occ. eigenvalues --   -0.77792  -0.76045  -0.71713  -0.70133  -0.66972
 Alpha  occ. eigenvalues --   -0.64108  -0.62838  -0.62341  -0.60561  -0.58874
 Alpha  occ. eigenvalues --   -0.57137  -0.55802  -0.53719  -0.52209  -0.47873
 Alpha  occ. eigenvalues --   -0.46705  -0.46297  -0.43887  -0.42318  -0.39489
 Alpha virt. eigenvalues --    0.01888   0.04050   0.04589   0.05713   0.06994
 Alpha virt. eigenvalues --    0.07398   0.07545   0.08578   0.09938   0.10248
 Alpha virt. eigenvalues --    0.11164   0.11684   0.12562   0.12943   0.13301

 Mulliken atomic charges:
              1
     1  C    0.189349
     2  O   -0.398130
     3  N   -0.195456
     4  H    0.334886
     5  C   -0.516273
     6  H    0.288440
     7  C    0.164668
     8  O   -0.382403
     9  H    0.224352
    10  H    0.242518
    11  C   -0.091209
    12  S    0.169629
    13  C   -0.114429
    14  N   -0.198876
    15  N   -0.519755
    16  H    0.147527
    17  H    0.286109
    18  H    0.369052
 Sum of Mulliken atomic charges =   0.00000

 Dipole moment (field-independent basis, Debye):
    X=              3.8812    Y=             -2.3109    Z=              5.0291  Tot=              6.7599
 Quadrupole moment (field-independent basis, Debye-Ang):
   XX=            -93.1021   YY=            -79.8042   ZZ=            -70.9303
   XY=              7.0795   XZ=             13.6846   YZ=             -1.9287

 Normal termination of Gaussian 09 at Wed Feb 19 12:55:16 2020.
