 Gaussian 09, Revision A.02,
 Gaussian 09:  EM64L-G09RevA.02 11-Jun-2009

 ----------------------------------------------
 #P opt=(,maxcycle=400) HF/6-31G* MaxDisk=100GB
 ----------------------------------------------

 -------------------------------------------------------------------
 ModifiedRes Rotatable Bond Optimization on g2-node38.bme.utexas.edu
 -------------------------------------------------------------------
 Symbolic Z-matrix:
 Charge =  0 Multiplicity = 1

 SCF Done:  E(RHF) =  -903.990702181     A.U. after   16 cycles
 SCF Done:  E(RHF) =  -904.005631352     A.U. after   14 cycles
 SCF Done:  E(RHF) =  -904.008378693     A.U. after   15 cycles
 SCF Done:  E(RHF) =  -904.012446860     A.U. after   16 cycles
 SCF Done:  E(RHF) =  -904.013038670     A.U. after   17 cycles
 SCF Done:  E(RHF) =  -904.013132811     A.U. after   13 cycles
 SCF Done:  E(RHF) =  -904.013326045     A.U. after   13 cycles
 SCF Done:  E(RHF) =  -904.013558060     A.U. after   13 cycles
 SCF Done:  E(RHF) =  -904.013535011     A.U. after   13 cycles
 SCF Done:  E(RHF) =  -904.013598431     A.U. after   13 cycles
 SCF Done:  E(RHF) =  -904.013624098     A.U. after   12 cycles
 SCF Done:  E(RHF) =  -904.013635544     A.U. after   11 cycles
 SCF Done:  E(RHF) =  -904.013637404     A.U. after   11 cycles
 SCF Done:  E(RHF) =  -904.013638210     A.U. after   11 cycles
 SCF Done:  E(RHF) =  -904.013638326     A.U. after    9 cycles
 Optimization completed.
    -- Stationary point found.

                         Standard orientation:
 ---------------------------------------------------------------------
 Center     Atomic      Atomic             Coordinates (Angstroms)
 Number     Number       Type             X           Y           Z
 ---------------------------------------------------------------------
      1          6           0        1.736695    1.953244   -0.365940
      2          8           0        2.750764    1.827823    0.262745
      3          7           0        0.683722    1.118550   -0.289557
      4          1           0       -0.057362    1.227037   -0.946516
      5          6           0        0.655300   -0.023346    0.603096
      6          1           0        1.235424    0.249050    1.476622
      7          6           0        1.301093   -1.271027   -0.015815
      8          8           0        0.654460   -2.265387   -0.210893
      9          1           0       -0.738735   -1.179347    1.744671
     10          1           0       -1.170956    0.518106    1.597702
     11          6           0       -0.760360   -0.333114    1.076841
     12         16           0       -1.913016   -0.776527   -0.288401
     13          6           0       -3.012933    0.527812   -0.150502
     14          7           0       -3.748134    1.394037   -0.090355
     15          7           0        2.607574   -1.158375   -0.292432
     16          1           0        1.583704    2.773687   -1.063708
     17          1           0        3.119064   -0.327421   -0.088475
     18          1           0        3.074422   -1.937063   -0.700366
 ---------------------------------------------------------------------

 The electronic state is 1-A.
 Alpha  occ. eigenvalues --  -92.00887 -20.56494 -20.55083 -15.62678 -15.59762
 Alpha  occ. eigenvalues --  -15.58731 -11.38090 -11.37289 -11.31852 -11.30459
 Alpha  occ. eigenvalues --  -11.29874  -9.01706  -6.69987  -6.69798  -6.69607
 Alpha  occ. eigenvalues --   -1.42945  -1.41665  -1.28166  -1.24219  -1.23246
 Alpha  occ. eigenvalues --   -1.11853  -1.03075  -0.91570  -0.86698  -0.81414
 Alpha  occ. eigenvalues --   -0.77456  -0.75565  -0.71203  -0.69782  -0.66923
 Alpha  occ. eigenvalues --   -0.64080  -0.63060  -0.60507  -0.59499  -0.58658
 Alpha  occ. eigenvalues --   -0.57501  -0.55685  -0.52796  -0.52566  -0.47581
 Alpha  occ. eigenvalues --   -0.46024  -0.45693  -0.42898  -0.41553  -0.38587
 Alpha virt. eigenvalues --    0.13441   0.15895   0.18659   0.19701   0.20250
 Alpha virt. eigenvalues --    0.22226   0.23090   0.23822   0.24875   0.27934
 Alpha virt. eigenvalues --    0.28427   0.30349   0.32398   0.34274   0.36971

 Mulliken atomic charges:
              1
     1  C    0.519769
     2  O   -0.587803
     3  N   -0.765640
     4  H    0.419862
     5  C   -0.081488
     6  H    0.251394
     7  C    0.780289
     8  O   -0.607463
     9  H    0.251919
    10  H    0.248130
    11  C   -0.501364
    12  S    0.307850
    13  C    0.066458
    14  N   -0.391703
    15  N   -0.938479
    16  H    0.183890
    17  H    0.442355
    18  H    0.402024
 Sum of Mulliken atomic charges =   0.00000

 Dipole moment (field-independent basis, Debye):
    X=              3.1477    Y=              0.2648    Z=             -0.0502  Tot=              3.1592
 Quadrupole moment (field-independent basis, Debye-Ang):
   XX=            -87.0026   YY=            -79.3932   ZZ=            -65.8382
   XY=              0.1845   XZ=             -4.6232   YZ=             -4.7077

 Normal termination of Gaussian 09 at Wed Feb 19 12:34:56 2020.
