 Gaussian 09, Revision A.02,
 Gaussian 09:  EM64L-G09RevA.02 11-Jun-2009

 ----------------------------------------------
 #P opt=(,maxcycle=400) HF/6-31G* MaxDisk=100GB
 ----------------------------------------------

 -------------------------------------------------------------------
 ModifiedRes Rotatable Bond Optimization on g2-node38.bme.utexas.edu
 -------------------------------------------------------------------
 Symbolic Z-matrix:
 Charge =  0 Multiplicity = 1

 SCF Done:  E(RHF) =  -903.986578263     A.U. after   16 cycles
 SCF Done:  E(RHF) =  -904.002796119     A.U. after   15 cycles
 SCF Done:  E(RHF) =  -904.002553807     A.U. after   14 cycles
 SCF Done:  E(RHF) =  -904.005353097     A.U. after   14 cycles
 SCF Done:  E(RHF) =  -904.005896868     A.U. after   15 cycles
 SCF Done:  E(RHF) =  -904.006833947     A.U. after   16 cycles
 SCF Done:  E(RHF) =  -904.005887781     A.U. after   17 cycles
 SCF Done:  E(RHF) =  -904.008728991     A.U. after   16 cycles
 SCF Done:  E(RHF) =  -904.009493571     A.U. after   15 cycles
 SCF Done:  E(RHF) =  -904.010331958     A.U. after   13 cycles
 SCF Done:  E(RHF) =  -904.010703941     A.U. after   15 cycles
 SCF Done:  E(RHF) =  -904.011692205     A.U. after   14 cycles
 SCF Done:  E(RHF) =  -904.011938324     A.U. after   14 cycles
 SCF Done:  E(RHF) =  -904.012015731     A.U. after   12 cycles
 SCF Done:  E(RHF) =  -904.012022890     A.U. after   11 cycles
 SCF Done:  E(RHF) =  -904.012024297     A.U. after   10 cycles
 SCF Done:  E(RHF) =  -904.012025311     A.U. after   10 cycles
 SCF Done:  E(RHF) =  -904.012026020     A.U. after   10 cycles
 SCF Done:  E(RHF) =  -904.012026199     A.U. after   10 cycles
 SCF Done:  E(RHF) =  -904.012026212     A.U. after    8 cycles
 Optimization completed.
    -- Stationary point found.

                         Standard orientation:
 ---------------------------------------------------------------------
 Center     Atomic      Atomic             Coordinates (Angstroms)
 Number     Number       Type             X           Y           Z
 ---------------------------------------------------------------------
      1          6           0        1.231373    1.927065   -0.824711
      2          8           0        1.568171    2.329270    0.252542
      3          7           0        0.711825    0.705750   -1.055275
      4          1           0        0.526133    0.439022   -1.996007
      5          6           0        0.433978   -0.236482    0.013276
      6          1           0        0.158387    0.340946    0.885003
      7          6           0        1.693936   -1.058107    0.334235
      8          8           0        1.819910   -2.186188   -0.055366
      9          1           0       -0.439453   -1.764663   -1.240426
     10          1           0       -0.851749   -1.901624    0.441194
     11          6           0       -0.693925   -1.194202   -0.357664
     12         16           0       -2.287921   -0.399247   -0.764160
     13          6           0       -2.663967    0.296552    0.748099
     14          7           0       -2.927372    0.767060    1.749435
     15          7           0        2.609827   -0.406100    1.069387
     16          1           0        1.323824    2.530661   -1.725322
     17          1           0        2.527530    0.572491    1.243096
     18          1           0        3.489082   -0.849446    1.217387
 ---------------------------------------------------------------------

 The electronic state is 1-A.
 Alpha  occ. eigenvalues --  -92.01319 -20.56206 -20.54430 -15.62624 -15.59238
 Alpha  occ. eigenvalues --  -15.59192 -11.37822 -11.36812 -11.31508 -11.30578
 Alpha  occ. eigenvalues --  -11.30340  -9.02222  -6.70535  -6.70338  -6.70141
 Alpha  occ. eigenvalues --   -1.42671  -1.41117  -1.27938  -1.24610  -1.22734
 Alpha  occ. eigenvalues --   -1.12235  -1.03037  -0.91641  -0.86471  -0.81127
 Alpha  occ. eigenvalues --   -0.76783  -0.75109  -0.70866  -0.70104  -0.66466
 Alpha  occ. eigenvalues --   -0.63585  -0.62643  -0.61841  -0.59556  -0.57613
 Alpha  occ. eigenvalues --   -0.56976  -0.55491  -0.53821  -0.52752  -0.46784
 Alpha  occ. eigenvalues --   -0.46529  -0.45729  -0.42431  -0.40963  -0.39143
 Alpha virt. eigenvalues --    0.12461   0.16572   0.18348   0.19276   0.20449
 Alpha virt. eigenvalues --    0.21506   0.22784   0.23874   0.24869   0.27224
 Alpha virt. eigenvalues --    0.29134   0.29873   0.32483   0.34211   0.37843

 Mulliken atomic charges:
              1
     1  C    0.523397
     2  O   -0.580436
     3  N   -0.758006
     4  H    0.399535
     5  C   -0.077340
     6  H    0.259625
     7  C    0.772199
     8  O   -0.605007
     9  H    0.243584
    10  H    0.257316
    11  C   -0.519363
    12  S    0.282981
    13  C    0.093547
    14  N   -0.376963
    15  N   -0.931121
    16  H    0.178136
    17  H    0.440745
    18  H    0.397172
 Sum of Mulliken atomic charges =   0.00000

 Dipole moment (field-independent basis, Debye):
    X=              1.8552    Y=             -0.2854    Z=             -4.0656  Tot=              4.4780
 Quadrupole moment (field-independent basis, Debye-Ang):
   XX=            -75.2909   YY=            -82.7286   ZZ=            -68.4619
   XY=              6.2096   XZ=              7.0728   YZ=             -7.7297

 Normal termination of Gaussian 09 at Wed Feb 19 13:01:16 2020.
