 Gaussian 09, Revision A.02,
 Gaussian 09:  EM64L-G09RevA.02 11-Jun-2009

 ----------------------------------------------------------------------
 #P MP2/6-311++G** SP SCF=(qc,maxcycle=800) Guess=Indo MaxDisk=100GB Po
 p=NBORead
 ----------------------------------------------------------------------

 ---------------------------------------------------------------------
 ModifiedRes Rotatable Bond SP Calculation on g2-node38.bme.utexas.edu
 ---------------------------------------------------------------------
 Symbolic Z-matrix:
 Charge =  0 Multiplicity = 1

                         Standard orientation:
 ---------------------------------------------------------------------
 Center     Atomic      Atomic             Coordinates (Angstroms)
 Number     Number       Type             X           Y           Z
 ---------------------------------------------------------------------
      1          6           0       -3.046686   -0.812608    0.201758
      2          8           0       -3.270122    0.054839    1.053774
      3          7           0       -1.798351   -1.067503   -0.286773
      4          1           0       -1.723255   -1.627931   -1.130453
      5          6           0       -0.601709   -0.362072    0.210081
      6          1           0       -0.756112   -0.151645    1.278797
      7          6           0       -0.458024    0.982816   -0.543354
      8          8           0        0.300463    1.101766   -1.502556
      9          1           0        0.898829   -1.693294    1.028464
     10          1           0        0.363472   -2.107269   -0.628461
     11          6           0        0.641045   -1.294012    0.045223
     12         16           0        2.216167   -0.626376   -0.655512
     13          6           0        2.783308    0.134088    0.755318
     14          7           0        3.133594    0.684576    1.744715
     15          7           0       -1.250736    1.984998   -0.079200
     16          1           0       -3.844060   -1.426247   -0.246319
     17          1           0       -1.945090    1.780421    0.634868
     18          1           0       -1.194340    2.891370   -0.523809
 ---------------------------------------------------------------------

 SCF Done:  E(RHF) =  -904.140416089     a.u. after   11 cycles
 E2 =    -0.1760259759D+01 EUMP2 =    -0.90590067584712D+03

 The electronic state is 1-A.
 Alpha  occ. eigenvalues --  -92.01431 -20.56407 -20.53787 -15.63807 -15.59536
 Alpha  occ. eigenvalues --  -15.58893 -11.39599 -11.37697 -11.33242 -11.31604
 Alpha  occ. eigenvalues --  -11.30572  -9.01555  -6.69785  -6.69608  -6.69453
 Alpha  occ. eigenvalues --   -1.41545  -1.39815  -1.27691  -1.22276  -1.21800
 Alpha  occ. eigenvalues --   -1.11243  -1.02744  -0.91810  -0.86838  -0.81057
 Alpha  occ. eigenvalues --   -0.76787  -0.74701  -0.71180  -0.69174  -0.66883
 Alpha  occ. eigenvalues --   -0.63834  -0.62645  -0.61696  -0.58255  -0.57734
 Alpha  occ. eigenvalues --   -0.56517  -0.55835  -0.52633  -0.51088  -0.47471
 Alpha  occ. eigenvalues --   -0.46992  -0.44658  -0.42803  -0.42508  -0.36179
 Alpha virt. eigenvalues --    0.02216   0.04481   0.04867   0.05396   0.07381
 Alpha virt. eigenvalues --    0.07615   0.08011   0.08753   0.09700   0.10605
 Alpha virt. eigenvalues --    0.11319   0.12063   0.12084   0.13079   0.13467

 Mulliken atomic charges:
              1
     1  C    0.305705
     2  O   -0.457381
     3  N   -0.155259
     4  H    0.339187
     5  C   -0.560335
     6  H    0.323869
     7  C    0.133750
     8  O   -0.339451
     9  H    0.209954
    10  H    0.196476
    11  C   -0.479883
    12  S    0.796317
    13  C   -0.503515
    14  N   -0.166769
    15  N   -0.456788
    16  H    0.157430
    17  H    0.312554
    18  H    0.344139
 Sum of Mulliken atomic charges =   0.00000

 Dipole moment (field-independent basis, Debye):
    X=             -4.4033    Y=             -4.0525    Z=             -2.4318  Tot=              6.4595
 Quadrupole moment (field-independent basis, Debye-Ang):
   XX=            -84.2952   YY=            -62.8655   ZZ=            -81.8306
   XY=             -0.3958   XZ=              1.5285   YZ=              2.0611

 Normal termination of Gaussian 09 at Wed Feb 19 12:42:20 2020.
