 Gaussian 09, Revision A.02,
 Gaussian 09:  EM64L-G09RevA.02 11-Jun-2009

 ----------------------------------------------
 #P opt=(,maxcycle=400) HF/6-31G* MaxDisk=100GB
 ----------------------------------------------

 -------------------------------------------------------------------
 ModifiedRes Rotatable Bond Optimization on g2-node38.bme.utexas.edu
 -------------------------------------------------------------------
 Symbolic Z-matrix:
 Charge =  0 Multiplicity = 1

 SCF Done:  E(RHF) =  -903.993056816     A.U. after   16 cycles
 SCF Done:  E(RHF) =  -904.006932476     A.U. after   15 cycles
 SCF Done:  E(RHF) =  -904.008595398     A.U. after   14 cycles
 SCF Done:  E(RHF) =  -904.010305946     A.U. after   15 cycles
 SCF Done:  E(RHF) =  -904.011209517     A.U. after   14 cycles
 SCF Done:  E(RHF) =  -904.010986167     A.U. after   16 cycles
 SCF Done:  E(RHF) =  -904.011376897     A.U. after   13 cycles
 SCF Done:  E(RHF) =  -904.011469354     A.U. after   13 cycles
 SCF Done:  E(RHF) =  -904.011475166     A.U. after   12 cycles
 SCF Done:  E(RHF) =  -904.011479268     A.U. after   11 cycles
 SCF Done:  E(RHF) =  -904.011480514     A.U. after   10 cycles
 SCF Done:  E(RHF) =  -904.011481019     A.U. after   10 cycles
 SCF Done:  E(RHF) =  -904.011481457     A.U. after   11 cycles
 Optimization completed.
    -- Stationary point found.

                         Standard orientation:
 ---------------------------------------------------------------------
 Center     Atomic      Atomic             Coordinates (Angstroms)
 Number     Number       Type             X           Y           Z
 ---------------------------------------------------------------------
      1          6           0        1.916199   -1.808348    0.474135
      2          8           0        2.539215   -1.848360   -0.548346
      3          7           0        0.972701   -0.886812    0.757345
      4          1           0        0.597782   -0.860277    1.680157
      5          6           0        0.604991    0.165533   -0.175932
      6          1           0        0.716024   -0.244932   -1.170219
      7          6           0        1.544032    1.374390   -0.029648
      8          8           0        1.190694    2.378017    0.522523
      9          1           0       -0.966615    1.027723    1.032490
     10          1           0       -1.093215    1.372124   -0.676942
     11          6           0       -0.834823    0.613687    0.045035
     12         16           0       -1.956546   -0.821710   -0.176649
     13          6           0       -3.448646    0.001845   -0.102456
     14          7           0       -4.455966    0.527316   -0.054225
     15          7           0        2.763170    1.195761   -0.566323
     16          1           0        2.060985   -2.532785    1.272690
     17          1           0        3.054732    0.305910   -0.908392
     18          1           0        3.445909    1.905854   -0.421198
 ---------------------------------------------------------------------

 The electronic state is 1-A.
 Alpha  occ. eigenvalues --  -92.01088 -20.56945 -20.54872 -15.63318 -15.59693
 Alpha  occ. eigenvalues --  -15.58906 -11.38515 -11.37294 -11.32195 -11.30401
 Alpha  occ. eigenvalues --  -11.30071  -9.01997  -6.70305  -6.70115  -6.69911
 Alpha  occ. eigenvalues --   -1.43378  -1.41613  -1.28588  -1.24297  -1.23199
 Alpha  occ. eigenvalues --   -1.12243  -1.03303  -0.91356  -0.87053  -0.81773
 Alpha  occ. eigenvalues --   -0.76979  -0.75845  -0.71454  -0.69984  -0.67174
 Alpha  occ. eigenvalues --   -0.64517  -0.62829  -0.62083  -0.58995  -0.58411
 Alpha  occ. eigenvalues --   -0.57097  -0.56106  -0.53404  -0.52336  -0.47404
 Alpha  occ. eigenvalues --   -0.46508  -0.46141  -0.42867  -0.41765  -0.38695
 Alpha virt. eigenvalues --    0.12895   0.15864   0.17635   0.19444   0.20877
 Alpha virt. eigenvalues --    0.21181   0.22432   0.23474   0.24297   0.27395
 Alpha virt. eigenvalues --    0.28397   0.29670   0.32296   0.34514   0.37790

 Mulliken atomic charges:
              1
     1  C    0.521828
     2  O   -0.579182
     3  N   -0.768314
     4  H    0.406856
     5  C   -0.100352
     6  H    0.253897
     7  C    0.775444
     8  O   -0.596821
     9  H    0.246011
    10  H    0.252435
    11  C   -0.492718
    12  S    0.286010
    13  C    0.084614
    14  N   -0.376546
    15  N   -0.934373
    16  H    0.182739
    17  H    0.439030
    18  H    0.399442
 Sum of Mulliken atomic charges =   0.00000

 Dipole moment (field-independent basis, Debye):
    X=              4.1317    Y=             -2.0490    Z=              1.5092  Tot=              4.8525
 Quadrupole moment (field-independent basis, Debye-Ang):
   XX=            -89.2620   YY=            -79.2465   ZZ=            -67.5808
   XY=              6.4379   XZ=              2.5739   YZ=             -8.6390

 Normal termination of Gaussian 09 at Wed Feb 19 12:34:50 2020.
