 Gaussian 09, Revision A.02,
 Gaussian 09:  EM64L-G09RevA.02 11-Jun-2009

 ----------------------------------------------------------------------
 #P MP2/6-311++G** SP SCF=(qc,maxcycle=800) Guess=Indo MaxDisk=100GB Po
 p=NBORead
 ----------------------------------------------------------------------

 ---------------------------------------------------------------------
 ModifiedRes Rotatable Bond SP Calculation on g2-node38.bme.utexas.edu
 ---------------------------------------------------------------------
 Symbolic Z-matrix:
 Charge =  0 Multiplicity = 1

                         Standard orientation:
 ---------------------------------------------------------------------
 Center     Atomic      Atomic             Coordinates (Angstroms)
 Number     Number       Type             X           Y           Z
 ---------------------------------------------------------------------
      1          6           0       -1.089366    2.292935    0.546114
      2          8           0       -0.584353    2.769648   -0.472487
      3          7           0       -1.184062    0.949365    0.764073
      4          1           0       -1.665304    0.653664    1.609253
      5          6           0       -0.879713   -0.071532   -0.254431
      6          1           0       -0.905818    0.409255   -1.241004
      7          6           0       -1.999826   -1.150489   -0.175734
      8          8           0       -3.129926   -0.827312   -0.534079
      9          1           0        0.575197   -1.101473    0.994580
     10          1           0        0.658248   -1.537651   -0.726985
     11          6           0        0.500858   -0.715106   -0.024654
     12         16           0        1.846028    0.529736   -0.281820
     13          6           0        3.171672   -0.486195    0.038973
     14          7           0        4.075953   -1.227550    0.230887
     15          7           0       -1.733663   -2.407478    0.278777
     16          1           0       -1.482723    2.917181    1.364037
     17          1           0       -0.818928   -2.719930    0.576563
     18          1           0       -2.512232   -3.053560    0.287445
 ---------------------------------------------------------------------

 SCF Done:  E(RHF) =  -904.147690518     a.u. after   12 cycles
 E2 =    -0.1757422451D+01 EUMP2 =    -0.90590511296917D+03

 The electronic state is 1-A.
 Alpha  occ. eigenvalues --  -92.02734 -20.55323 -20.54948 -15.62841 -15.62794
 Alpha  occ. eigenvalues --  -15.60047 -11.39898 -11.38273 -11.34151 -11.32146
 Alpha  occ. eigenvalues --  -11.31576  -9.02837  -6.71073  -6.70893  -6.70727
 Alpha  occ. eigenvalues --   -1.41553  -1.39981  -1.26991  -1.24813  -1.22845
 Alpha  occ. eigenvalues --   -1.12392  -1.03754  -0.92133  -0.85969  -0.83270
 Alpha  occ. eigenvalues --   -0.78937  -0.74871  -0.70902  -0.70118  -0.67806
 Alpha  occ. eigenvalues --   -0.64417  -0.62411  -0.62091  -0.60311  -0.58576
 Alpha  occ. eigenvalues --   -0.57181  -0.55995  -0.53679  -0.52022  -0.47397
 Alpha  occ. eigenvalues --   -0.45622  -0.45101  -0.44632  -0.42349  -0.39078
 Alpha virt. eigenvalues --    0.02000   0.03550   0.05273   0.05319   0.06466
 Alpha virt. eigenvalues --    0.07349   0.07979   0.09105   0.09812   0.11051
 Alpha virt. eigenvalues --    0.11365   0.11839   0.12530   0.12836   0.13115

 Mulliken atomic charges:
              1
     1  C    0.241040
     2  O   -0.418520
     3  N   -0.153161
     4  H    0.352652
     5  C    0.081493
     6  H    0.331585
     7  C   -0.039456
     8  O   -0.392161
     9  H    0.190282
    10  H    0.218783
    11  C   -0.488507
    12  S    0.096688
    13  C   -0.124894
    14  N   -0.216090
    15  N   -0.494951
    16  H    0.143427
    17  H    0.297699
    18  H    0.374089
 Sum of Mulliken atomic charges =   0.00000

 Dipole moment (field-independent basis, Debye):
    X=             -2.8072    Y=             -3.2103    Z=              3.6997  Tot=              5.6457
 Quadrupole moment (field-independent basis, Debye-Ang):
   XX=           -102.2142   YY=            -70.5664   ZZ=            -69.2195
   XY=              7.4517   XZ=             -9.7044   YZ=              5.3911

 Normal termination of Gaussian 09 at Wed Feb 19 12:54:53 2020.
