 Gaussian 09, Revision A.02,
 Gaussian 09:  EM64L-G09RevA.02 11-Jun-2009

 ----------------------------------------------------------------------
 #P MP2/6-311++G** SP SCF=(qc,maxcycle=800) Guess=Indo MaxDisk=100GB Po
 p=NBORead
 ----------------------------------------------------------------------

 ---------------------------------------------------------------------
 ModifiedRes Rotatable Bond SP Calculation on g2-node38.bme.utexas.edu
 ---------------------------------------------------------------------
 Symbolic Z-matrix:
 Charge =  0 Multiplicity = 1

                         Standard orientation:
 ---------------------------------------------------------------------
 Center     Atomic      Atomic             Coordinates (Angstroms)
 Number     Number       Type             X           Y           Z
 ---------------------------------------------------------------------
      1          6           0        1.965618   -1.839261    0.493465
      2          8           0        2.593847   -1.819040   -0.570474
      3          7           0        1.000899   -0.921134    0.789883
      4          1           0        0.616960   -0.902978    1.730360
      5          6           0        0.625888    0.139690   -0.157691
      6          1           0        0.751519   -0.282750   -1.165655
      7          6           0        1.576445    1.341296    0.004305
      8          8           0        1.344488    2.176092    0.879819
      9          1           0       -0.965405    1.012400    1.041709
     10          1           0       -1.075607    1.357515   -0.697083
     11          6           0       -0.832645    0.590987    0.041746
     12         16           0       -2.002872   -0.820177   -0.185202
     13          6           0       -3.476804    0.027508   -0.125720
     14          7           0       -4.517187    0.594575   -0.088048
     15          7           0        2.626950    1.383960   -0.856590
     16          1           0        2.147215   -2.586457    1.281761
     17          1           0        2.867972    0.545614   -1.376298
     18          1           0        3.270971    2.159942   -0.779662
 ---------------------------------------------------------------------

 SCF Done:  E(RHF) =  -904.161416398     a.u. after   12 cycles
 E2 =    -0.1755455120D+01 EUMP2 =    -0.90591687151788D+03

 The electronic state is 1-A.
 Alpha  occ. eigenvalues --  -92.02983 -20.56207 -20.54867 -15.63539 -15.61078
 Alpha  occ. eigenvalues --  -15.60207 -11.39416 -11.38698 -11.33575 -11.31725
 Alpha  occ. eigenvalues --  -11.31667  -9.03112  -6.71368  -6.71187  -6.71032
 Alpha  occ. eigenvalues --   -1.41483  -1.40338  -1.27638  -1.23645  -1.22839
 Alpha  occ. eigenvalues --   -1.12226  -1.03769  -0.91783  -0.87192  -0.81528
 Alpha  occ. eigenvalues --   -0.76933  -0.75373  -0.72199  -0.69786  -0.67715
 Alpha  occ. eigenvalues --   -0.64051  -0.62964  -0.62730  -0.58707  -0.57760
 Alpha  occ. eigenvalues --   -0.57080  -0.56793  -0.53502  -0.51993  -0.47288
 Alpha  occ. eigenvalues --   -0.46852  -0.46059  -0.43754  -0.42442  -0.39149
 Alpha virt. eigenvalues --    0.02930   0.03880   0.05251   0.05642   0.07088
 Alpha virt. eigenvalues --    0.07357   0.08576   0.08831   0.09362   0.10724
 Alpha virt. eigenvalues --    0.10805   0.11999   0.12387   0.12837   0.12932

 Mulliken atomic charges:
              1
     1  C    0.303886
     2  O   -0.449808
     3  N   -0.128352
     4  H    0.345414
     5  C   -0.562222
     6  H    0.264164
     7  C    0.371397
     8  O   -0.408842
     9  H    0.249495
    10  H    0.227674
    11  C   -0.424534
    12  S    0.139065
    13  C   -0.097997
    14  N   -0.202008
    15  N   -0.448104
    16  H    0.158384
    17  H    0.302136
    18  H    0.360252
 Sum of Mulliken atomic charges =   0.00000

 Dipole moment (field-independent basis, Debye):
    X=              3.8536    Y=             -1.8251    Z=              0.4774  Tot=              4.2906
 Quadrupole moment (field-independent basis, Debye-Ang):
   XX=            -94.5089   YY=            -77.9885   ZZ=            -69.3362
   XY=              7.6518   XZ=             -0.1551   YZ=            -11.9496

 Normal termination of Gaussian 09 at Wed Feb 19 13:00:38 2020.
