 Gaussian 09, Revision A.02,
 Gaussian 09:  EM64L-G09RevA.02 11-Jun-2009

 ----------------------------------------------
 #P opt=(,maxcycle=400) HF/6-31G* MaxDisk=100GB
 ----------------------------------------------

 -------------------------------------------------------------------
 ModifiedRes Rotatable Bond Optimization on g2-node38.bme.utexas.edu
 -------------------------------------------------------------------
 Symbolic Z-matrix:
 Charge =  0 Multiplicity = 1

 SCF Done:  E(RHF) =  -903.985581039     A.U. after   16 cycles
 SCF Done:  E(RHF) =  -904.000381096     A.U. after   14 cycles
 SCF Done:  E(RHF) =  -904.002400340     A.U. after   14 cycles
 SCF Done:  E(RHF) =  -904.006198199     A.U. after   16 cycles
 SCF Done:  E(RHF) =  -904.010894048     A.U. after   16 cycles
 SCF Done:  E(RHF) =  -904.012417613     A.U. after   17 cycles
 SCF Done:  E(RHF) =  -904.012729126     A.U. after   13 cycles
 SCF Done:  E(RHF) =  -904.013312529     A.U. after   13 cycles
 SCF Done:  E(RHF) =  -904.013492842     A.U. after   13 cycles
 SCF Done:  E(RHF) =  -904.013547821     A.U. after   13 cycles
 SCF Done:  E(RHF) =  -904.013556641     A.U. after   13 cycles
 SCF Done:  E(RHF) =  -904.013606620     A.U. after   12 cycles
 SCF Done:  E(RHF) =  -904.013623439     A.U. after   11 cycles
 SCF Done:  E(RHF) =  -904.013634749     A.U. after   12 cycles
 SCF Done:  E(RHF) =  -904.013637492     A.U. after   11 cycles
 SCF Done:  E(RHF) =  -904.013638051     A.U. after   10 cycles
 SCF Done:  E(RHF) =  -904.013638336     A.U. after    9 cycles
 SCF Done:  E(RHF) =  -904.013638359     A.U. after    9 cycles
 Optimization completed.
    -- Stationary point found.

                         Standard orientation:
 ---------------------------------------------------------------------
 Center     Atomic      Atomic             Coordinates (Angstroms)
 Number     Number       Type             X           Y           Z
 ---------------------------------------------------------------------
      1          6           0        1.736274    1.953394   -0.365545
      2          8           0        2.750665    1.827684    0.262592
      3          7           0        0.683437    1.118587   -0.289189
      4          1           0       -0.058432    1.227974   -0.945096
      5          6           0        0.655211   -0.023486    0.603244
      6          1           0        1.235380    0.248765    1.476779
      7          6           0        1.301033   -1.271006   -0.016005
      8          8           0        0.654497   -2.265492   -0.210854
      9          1           0       -0.738440   -1.180064    1.744497
     10          1           0       -1.171048    0.517346    1.598277
     11          6           0       -0.760333   -0.333573    1.077015
     12         16           0       -1.913124   -0.776887   -0.288140
     13          6           0       -3.012412    0.528051   -0.150832
     14          7           0       -3.746976    1.394841   -0.090886
     15          7           0        2.607362   -1.158046   -0.293074
     16          1           0        1.582922    2.774260   -1.062731
     17          1           0        3.118754   -0.326991   -0.089301
     18          1           0        3.074159   -1.936593   -0.701320
 ---------------------------------------------------------------------

 The electronic state is 1-A.
 Alpha  occ. eigenvalues --  -92.00888 -20.56492 -20.55081 -15.62678 -15.59760
 Alpha  occ. eigenvalues --  -15.58733 -11.38089 -11.37287 -11.31852 -11.30459
 Alpha  occ. eigenvalues --  -11.29876  -9.01707  -6.69988  -6.69799  -6.69607
 Alpha  occ. eigenvalues --   -1.42943  -1.41663  -1.28167  -1.24221  -1.23246
 Alpha  occ. eigenvalues --   -1.11854  -1.03075  -0.91571  -0.86699  -0.81413
 Alpha  occ. eigenvalues --   -0.77455  -0.75567  -0.71204  -0.69783  -0.66923
 Alpha  occ. eigenvalues --   -0.64078  -0.63060  -0.60507  -0.59498  -0.58658
 Alpha  occ. eigenvalues --   -0.57501  -0.55687  -0.52797  -0.52568  -0.47580
 Alpha  occ. eigenvalues --   -0.46024  -0.45694  -0.42897  -0.41553  -0.38587
 Alpha virt. eigenvalues --    0.13441   0.15897   0.18658   0.19699   0.20244
 Alpha virt. eigenvalues --    0.22228   0.23090   0.23824   0.24875   0.27934
 Alpha virt. eigenvalues --    0.28426   0.30353   0.32400   0.34270   0.36975

 Mulliken atomic charges:
              1
     1  C    0.519774
     2  O   -0.587853
     3  N   -0.765653
     4  H    0.419874
     5  C   -0.081412
     6  H    0.251380
     7  C    0.780328
     8  O   -0.607504
     9  H    0.251956
    10  H    0.248121
    11  C   -0.501445
    12  S    0.307891
    13  C    0.066425
    14  N   -0.391706
    15  N   -0.938483
    16  H    0.183893
    17  H    0.442398
    18  H    0.402015
 Sum of Mulliken atomic charges =   0.00000

 Dipole moment (field-independent basis, Debye):
    X=              3.1435    Y=              0.2656    Z=             -0.0479  Tot=              3.1551
 Quadrupole moment (field-independent basis, Debye-Ang):
   XX=            -86.9949   YY=            -79.3924   ZZ=            -65.8417
   XY=              0.1870   XZ=             -4.6253   YZ=             -4.7029

 Normal termination of Gaussian 09 at Wed Feb 19 12:36:25 2020.
