 Gaussian 09, Revision A.02,
 Gaussian 09:  EM64L-G09RevA.02 11-Jun-2009

 ----------------------------------------------------------------------
 #P MP2/6-311++G** SP SCF=(qc,maxcycle=800) Guess=Indo MaxDisk=100GB Po
 p=NBORead
 ----------------------------------------------------------------------

 ---------------------------------------------------------------------
 ModifiedRes Rotatable Bond SP Calculation on g2-node38.bme.utexas.edu
 ---------------------------------------------------------------------
 Symbolic Z-matrix:
 Charge =  0 Multiplicity = 1

                         Standard orientation:
 ---------------------------------------------------------------------
 Center     Atomic      Atomic             Coordinates (Angstroms)
 Number     Number       Type             X           Y           Z
 ---------------------------------------------------------------------
      1          6           0        2.015572   -1.877406    0.334368
      2          8           0        2.476090   -1.979716   -0.805404
      3          7           0        1.068068   -0.956440    0.683747
      4          1           0        0.717208   -0.981559    1.636588
      5          6           0        0.656828    0.153221   -0.200627
      6          1           0        0.743009   -0.210033   -1.234579
      7          6           0        1.632280    1.355234   -0.021320
      8          8           0        2.802335    1.138301    0.284512
      9          1           0       -0.905711    0.922217    1.117066
     10          1           0       -1.107779    1.359448   -0.587386
     11          6           0       -0.803753    0.562273    0.090106
     12         16           0       -1.939748   -0.872986   -0.170962
     13          6           0       -3.422831   -0.059684    0.005672
     14          7           0       -4.463298    0.493963    0.126141
     15          7           0        1.173694    2.625905   -0.203209
     16          1           0        2.312881   -2.549649    1.155540
     17          1           0        0.277715    2.850131   -0.614690
     18          1           0        1.853412    3.362713   -0.065966
 ---------------------------------------------------------------------

 SCF Done:  E(RHF) =  -904.147464282     a.u. after   12 cycles
 E2 =    -0.1756953368D+01 EUMP2 =    -0.90590441765002D+03

 The electronic state is 1-A.
 Alpha  occ. eigenvalues --  -92.03924 -20.54637 -20.53885 -15.62027 -15.61998
 Alpha  occ. eigenvalues --  -15.61011 -11.39065 -11.37316 -11.34170 -11.33222
 Alpha  occ. eigenvalues --  -11.32485  -9.04034  -6.72279  -6.72100  -6.71941
 Alpha  occ. eigenvalues --   -1.40812  -1.38640  -1.26178  -1.24174  -1.23710
 Alpha  occ. eigenvalues --   -1.12950  -1.04025  -0.92190  -0.86188  -0.82221
 Alpha  occ. eigenvalues --   -0.77474  -0.74557  -0.71710  -0.69463  -0.68086
 Alpha  occ. eigenvalues --   -0.63908  -0.62926  -0.60954  -0.60705  -0.58289
 Alpha  occ. eigenvalues --   -0.56421  -0.55239  -0.54515  -0.52912  -0.47526
 Alpha  occ. eigenvalues --   -0.45718  -0.44621  -0.43916  -0.41772  -0.39961
 Alpha virt. eigenvalues --    0.02319   0.03447   0.05098   0.05355   0.06624
 Alpha virt. eigenvalues --    0.06842   0.08278   0.09098   0.09553   0.10281
 Alpha virt. eigenvalues --    0.11242   0.11922   0.12609   0.12830   0.13328

 Mulliken atomic charges:
              1
     1  C    0.238763
     2  O   -0.414867
     3  N   -0.154754
     4  H    0.317252
     5  C   -0.178536
     6  H    0.299150
     7  C    0.055849
     8  O   -0.398530
     9  H    0.271170
    10  H    0.094762
    11  C   -0.244238
    12  S    0.203126
    13  C   -0.175388
    14  N   -0.200510
    15  N   -0.479346
    16  H    0.132288
    17  H    0.269676
    18  H    0.364134
 Sum of Mulliken atomic charges =   0.00000

 Dipole moment (field-independent basis, Debye):
    X=             -0.9320    Y=              2.5974    Z=              2.0253  Tot=              3.4231
 Quadrupole moment (field-independent basis, Debye-Ang):
   XX=           -113.9963   YY=            -62.9700   ZZ=            -69.8133
   XY=              6.3314   XZ=              6.4942   YZ=             -9.8057

 Normal termination of Gaussian 09 at Wed Feb 19 12:54:00 2020.
