 Gaussian 09, Revision A.02,
 Gaussian 09:  EM64L-G09RevA.02 11-Jun-2009

 ----------------------------------------------------------------------
 #P MP2/6-311++G** SP SCF=(qc,maxcycle=800) Guess=Indo MaxDisk=100GB Po
 p=NBORead
 ----------------------------------------------------------------------

 ---------------------------------------------------------------------
 ModifiedRes Rotatable Bond SP Calculation on g2-node38.bme.utexas.edu
 ---------------------------------------------------------------------
 Symbolic Z-matrix:
 Charge =  0 Multiplicity = 1

                         Standard orientation:
 ---------------------------------------------------------------------
 Center     Atomic      Atomic             Coordinates (Angstroms)
 Number     Number       Type             X           Y           Z
 ---------------------------------------------------------------------
      1          6           0       -2.569034   -1.526861   -0.291345
      2          8           0       -3.447486   -0.878444    0.288235
      3          7           0       -1.249159   -1.186733   -0.245518
      4          1           0       -0.621752   -1.644293   -0.901740
      5          6           0       -0.704343   -0.092172    0.585234
      6          1           0       -1.311339   -0.014372    1.500831
      7          6           0       -0.844817    1.234329   -0.207216
      8          8           0        0.133134    1.890603   -0.552263
      9          1           0        0.730876   -0.387923    2.146246
     10          1           0        0.987606   -1.434534    0.710707
     11          6           0        0.741923   -0.428266    1.054784
     12         16           0        2.197011    0.590147    0.520017
     13          6           0        3.045050   -0.585472   -0.377157
     14          7           0        3.585318   -1.417098   -1.027256
     15          7           0       -2.119073    1.626960   -0.475515
     16          1           0       -2.791187   -2.408504   -0.913135
     17          1           0       -2.902891    1.092389   -0.109353
     18          1           0       -2.260948    2.486357   -0.989384
 ---------------------------------------------------------------------

 SCF Done:  E(RHF) =  -904.135104501     a.u. after   11 cycles
 E2 =    -0.1758681632D+01 EUMP2 =    -0.90589378613307D+03

 The electronic state is 1-A.
 Alpha  occ. eigenvalues --  -92.01327 -20.56553 -20.54125 -15.63825 -15.59616
 Alpha  occ. eigenvalues --  -15.58857 -11.39813 -11.38207 -11.33923 -11.31708
 Alpha  occ. eigenvalues --  -11.30708  -9.01434  -6.69657  -6.69476  -6.69329
 Alpha  occ. eigenvalues --   -1.41808  -1.40317  -1.27825  -1.22338  -1.21794
 Alpha  occ. eigenvalues --   -1.11270  -1.03106  -0.91858  -0.87025  -0.81097
 Alpha  occ. eigenvalues --   -0.76947  -0.75222  -0.70410  -0.70219  -0.67842
 Alpha  occ. eigenvalues --   -0.64018  -0.62300  -0.62115  -0.59164  -0.58167
 Alpha  occ. eigenvalues --   -0.56612  -0.55270  -0.52094  -0.51414  -0.48008
 Alpha  occ. eigenvalues --   -0.46906  -0.44610  -0.43012  -0.42684  -0.36124
 Alpha virt. eigenvalues --    0.02822   0.03767   0.04708   0.06163   0.07107
 Alpha virt. eigenvalues --    0.07368   0.08137   0.08915   0.09767   0.10266
 Alpha virt. eigenvalues --    0.11105   0.11618   0.12036   0.12862   0.13480

 Mulliken atomic charges:
              1
     1  C    0.296872
     2  O   -0.464328
     3  N   -0.255331
     4  H    0.345511
     5  C    0.255411
     6  H    0.308939
     7  C   -0.109809
     8  O   -0.318937
     9  H    0.227042
    10  H    0.179245
    11  C   -0.879415
    12  S    0.714358
    13  C   -0.420408
    14  N   -0.198184
    15  N   -0.523191
    16  H    0.163580
    17  H    0.324542
    18  H    0.354101
 Sum of Mulliken atomic charges =   0.00000

 Dipole moment (field-independent basis, Debye):
    X=             -4.0124    Y=             -1.2271    Z=              1.5383  Tot=              4.4689
 Quadrupole moment (field-independent basis, Debye-Ang):
   XX=            -95.4151   YY=            -71.3187   ZZ=            -70.2461
   XY=              3.2206   XZ=             11.7590   YZ=              1.2713

 Normal termination of Gaussian 09 at Wed Feb 19 12:42:30 2020.
