 Gaussian 09, Revision A.02,
 Gaussian 09:  EM64L-G09RevA.02 11-Jun-2009

 ----------------------------------------------------------------------
 #P MP2/6-311++G** SP SCF=(qc,maxcycle=800) Guess=Indo MaxDisk=100GB Po
 p=NBORead
 ----------------------------------------------------------------------

 ---------------------------------------------------------------------
 ModifiedRes Rotatable Bond SP Calculation on g2-node38.bme.utexas.edu
 ---------------------------------------------------------------------
 Symbolic Z-matrix:
 Charge =  0 Multiplicity = 1

                         Standard orientation:
 ---------------------------------------------------------------------
 Center     Atomic      Atomic             Coordinates (Angstroms)
 Number     Number       Type             X           Y           Z
 ---------------------------------------------------------------------
      1          6           0        1.410591    2.046832   -0.457806
      2          8           0        2.321365    2.161779    0.369957
      3          7           0        0.590055    0.957590   -0.506138
      4          1           0        0.024391    0.854750   -1.342217
      5          6           0        0.609950   -0.121757    0.508008
      6          1           0        0.878039    0.344164    1.468745
      7          6           0        1.688568   -1.154708    0.109286
      8          8           0        1.348919   -2.312976   -0.142756
      9          1           0       -0.619287   -1.867412    0.880012
     10          1           0       -1.253371   -0.366116    1.605320
     11          6           0       -0.776752   -0.795767    0.721467
     12         16           0       -1.982604   -0.606825   -0.665622
     13          6           0       -3.200881    0.308518    0.092566
     14          7           0       -4.015321    0.980992    0.629504
     15          7           0        2.973280   -0.712354    0.078918
     16          1           0        1.217387    2.798987   -1.238743
     17          1           0        3.184106    0.237356    0.375096
     18          1           0        3.703181   -1.365249   -0.172984
 ---------------------------------------------------------------------

 SCF Done:  E(RHF) =  -904.153713575     a.u. after   12 cycles
 E2 =    -0.1756976632D+01 EUMP2 =    -0.90591069020706D+03

 The electronic state is 1-A.
 Alpha  occ. eigenvalues --  -92.03245 -20.56188 -20.54637 -15.63157 -15.60444
 Alpha  occ. eigenvalues --  -15.60148 -11.39367 -11.38346 -11.33652 -11.32037
 Alpha  occ. eigenvalues --  -11.31480  -9.03382  -6.71637  -6.71455  -6.71320
 Alpha  occ. eigenvalues --   -1.41452  -1.40145  -1.27327  -1.23195  -1.22723
 Alpha  occ. eigenvalues --   -1.11889  -1.03822  -0.91996  -0.86507  -0.81071
 Alpha  occ. eigenvalues --   -0.76726  -0.75611  -0.71445  -0.69990  -0.67292
 Alpha  occ. eigenvalues --   -0.64241  -0.63206  -0.60760  -0.59630  -0.57797
 Alpha  occ. eigenvalues --   -0.57454  -0.56394  -0.52884  -0.52293  -0.47672
 Alpha  occ. eigenvalues --   -0.46720  -0.46012  -0.43154  -0.42159  -0.39677
 Alpha virt. eigenvalues --    0.03187   0.04074   0.04856   0.05878   0.06807
 Alpha virt. eigenvalues --    0.07588   0.08369   0.08914   0.09479   0.09904
 Alpha virt. eigenvalues --    0.10773   0.11745   0.12523   0.13153   0.13263

 Mulliken atomic charges:
              1
     1  C    0.294657
     2  O   -0.459345
     3  N   -0.189222
     4  H    0.309025
     5  C   -0.096189
     6  H    0.304384
     7  C    0.109972
     8  O   -0.420010
     9  H    0.308326
    10  H    0.202252
    11  C   -0.611754
    12  S    0.424685
    13  C   -0.329799
    14  N   -0.177148
    15  N   -0.515553
    16  H    0.163779
    17  H    0.324476
    18  H    0.357464
 Sum of Mulliken atomic charges =   0.00000

 Dipole moment (field-independent basis, Debye):
    X=              2.7141    Y=              0.3280    Z=             -1.4484  Tot=              3.0938
 Quadrupole moment (field-independent basis, Debye-Ang):
   XX=            -88.0479   YY=            -84.1315   ZZ=            -67.8910
   XY=              2.5144   XZ=              1.2082   YZ=             -8.5900

 Normal termination of Gaussian 09 at Wed Feb 19 12:41:31 2020.
