 Gaussian 09, Revision A.02,
 Gaussian 09:  EM64L-G09RevA.02 11-Jun-2009

 ----------------------------------------------------------------------
 #P MP2/6-311++G** SP SCF=(qc,maxcycle=800) Guess=Indo MaxDisk=100GB Po
 p=NBORead
 ----------------------------------------------------------------------

 ---------------------------------------------------------------------
 ModifiedRes Rotatable Bond SP Calculation on g2-node38.bme.utexas.edu
 ---------------------------------------------------------------------
 Symbolic Z-matrix:
 Charge =  0 Multiplicity = 1

                         Standard orientation:
 ---------------------------------------------------------------------
 Center     Atomic      Atomic             Coordinates (Angstroms)
 Number     Number       Type             X           Y           Z
 ---------------------------------------------------------------------
      1          6           0       -2.753604   -1.147228   -0.480935
      2          8           0       -2.838363   -1.339476    0.737318
      3          7           0       -1.673647   -0.548140   -1.060442
      4          1           0       -1.766909   -0.210528   -2.013677
      5          6           0       -0.487536   -0.156523   -0.281041
      6          1           0       -0.368718   -0.897008    0.523832
      7          6           0       -0.702791    1.235814    0.345638
      8          8           0       -0.231289    2.229393   -0.208165
      9          1           0        0.977258   -1.193426   -1.527175
     10          1           0        0.556011    0.433703   -2.085435
     11          6           0        0.752824   -0.176593   -1.200680
     12         16           0        2.256545    0.508793   -0.377062
     13          6           0        2.691803   -0.859208    0.532554
     14          7           0        2.993445   -1.836987    1.129527
     15          7           0       -1.444556    1.256681    1.483851
     16          1           0       -3.556562   -1.418329   -1.184251
     17          1           0       -1.904260    0.401797    1.787485
     18          1           0       -1.615194    2.145308    1.935209
 ---------------------------------------------------------------------

 SCF Done:  E(RHF) =  -904.160661454     a.u. after   11 cycles
 E2 =    -0.1757999282D+01 EUMP2 =    -0.90591866073635D+03

 The electronic state is 1-A.
 Alpha  occ. eigenvalues --  -92.02290 -20.56319 -20.54127 -15.63623 -15.60037
 Alpha  occ. eigenvalues --  -15.59554 -11.39506 -11.37915 -11.32858 -11.31544
 Alpha  occ. eigenvalues --  -11.31092  -9.02397  -6.70632  -6.70452  -6.70300
 Alpha  occ. eigenvalues --   -1.41469  -1.39812  -1.27611  -1.22689  -1.22437
 Alpha  occ. eigenvalues --   -1.11919  -1.02802  -0.92047  -0.86758  -0.81167
 Alpha  occ. eigenvalues --   -0.76809  -0.75122  -0.71221  -0.69402  -0.67451
 Alpha  occ. eigenvalues --   -0.63647  -0.62715  -0.61941  -0.58408  -0.57216
 Alpha  occ. eigenvalues --   -0.56773  -0.56269  -0.53127  -0.51776  -0.47402
 Alpha  occ. eigenvalues --   -0.47025  -0.45046  -0.43013  -0.42305  -0.38333
 Alpha virt. eigenvalues --    0.02308   0.04525   0.04827   0.05636   0.07105
 Alpha virt. eigenvalues --    0.07967   0.08354   0.08932   0.09885   0.10987
 Alpha virt. eigenvalues --    0.11205   0.11874   0.12480   0.13106   0.13424

 Mulliken atomic charges:
              1
     1  C    0.308533
     2  O   -0.446392
     3  N   -0.067880
     4  H    0.329819
     5  C   -0.417176
     6  H    0.343157
     7  C   -0.080833
     8  O   -0.376886
     9  H    0.237915
    10  H    0.242845
    11  C   -0.542281
    12  S    0.748226
    13  C   -0.503421
    14  N   -0.166837
    15  N   -0.422875
    16  H    0.153202
    17  H    0.315271
    18  H    0.345614
 Sum of Mulliken atomic charges =   0.00000

 Dipole moment (field-independent basis, Debye):
    X=             -3.8484    Y=              0.6407    Z=             -4.0715  Tot=              5.6390
 Quadrupole moment (field-independent basis, Debye-Ang):
   XX=            -78.1914   YY=            -85.8591   ZZ=            -64.8917
   XY=              3.3513   XZ=              1.5847   YZ=             11.7463

 Normal termination of Gaussian 09 at Wed Feb 19 12:41:39 2020.
