 Gaussian 09, Revision A.02,
 Gaussian 09:  EM64L-G09RevA.02 11-Jun-2009

 ----------------------------------------------------------------------
 #P MP2/6-311++G** SP SCF=(qc,maxcycle=800) Guess=Indo MaxDisk=100GB Po
 p=NBORead
 ----------------------------------------------------------------------

 ---------------------------------------------------------------------
 ModifiedRes Rotatable Bond SP Calculation on g2-node38.bme.utexas.edu
 ---------------------------------------------------------------------
 Symbolic Z-matrix:
 Charge =  0 Multiplicity = 1

                         Standard orientation:
 ---------------------------------------------------------------------
 Center     Atomic      Atomic             Coordinates (Angstroms)
 Number     Number       Type             X           Y           Z
 ---------------------------------------------------------------------
      1          6           0       -1.981493    1.878610    0.455271
      2          8           0       -2.546940    2.014158   -0.628538
      3          7           0       -1.043073    0.917495    0.701673
      4          1           0       -0.686925    0.857402    1.651153
      5          6           0       -0.641961   -0.124700   -0.262569
      6          1           0       -0.729932    0.324582   -1.261854
      7          6           0       -1.599794   -1.337428   -0.179777
      8          8           0       -2.165720   -1.736520   -1.194466
      9          1           0        0.907592   -1.032942    0.975499
     10          1           0        1.076381   -1.329650   -0.765140
     11          6           0        0.803696   -0.583836   -0.013739
     12         16           0        1.974113    0.838716   -0.153351
     13          6           0        3.434928   -0.025499   -0.060782
     14          7           0        4.437204   -0.647647    0.047321
     15          7           0       -1.769075   -1.919884    1.041112
     16          1           0       -2.189408    2.533684    1.316564
     17          1           0       -1.325277   -1.580146    1.885232
     18          1           0       -2.404617   -2.706119    1.075020
 ---------------------------------------------------------------------

 SCF Done:  E(RHF) =  -904.149139475     a.u. after   12 cycles
 E2 =    -0.1756388872D+01 EUMP2 =    -0.90590552834671D+03

 The electronic state is 1-A.
 Alpha  occ. eigenvalues --  -92.03775 -20.55241 -20.54983 -15.63318 -15.62036
 Alpha  occ. eigenvalues --  -15.60854 -11.38958 -11.38525 -11.33804 -11.32932
 Alpha  occ. eigenvalues --  -11.32336  -9.03898  -6.72146  -6.71968  -6.71809
 Alpha  occ. eigenvalues --   -1.40909  -1.40095  -1.27869  -1.23936  -1.23579
 Alpha  occ. eigenvalues --   -1.13113  -1.04276  -0.92236  -0.86664  -0.82950
 Alpha  occ. eigenvalues --   -0.78094  -0.75375  -0.71686  -0.69953  -0.67227
 Alpha  occ. eigenvalues --   -0.64153  -0.63427  -0.62908  -0.59016  -0.58574
 Alpha  occ. eigenvalues --   -0.57168  -0.56618  -0.54388  -0.52767  -0.47666
 Alpha  occ. eigenvalues --   -0.46456  -0.45771  -0.44102  -0.42034  -0.39879
 Alpha virt. eigenvalues --    0.01394   0.03685   0.04787   0.05375   0.06747
 Alpha virt. eigenvalues --    0.07292   0.07965   0.08172   0.09489   0.09924
 Alpha virt. eigenvalues --    0.10945   0.11952   0.12401   0.12736   0.13243

 Mulliken atomic charges:
              1
     1  C    0.281752
     2  O   -0.391240
     3  N   -0.150802
     4  H    0.310726
     5  C   -0.627975
     6  H    0.311775
     7  C    0.294394
     8  O   -0.358122
     9  H    0.161340
    10  H    0.227812
    11  C   -0.247370
    12  S    0.224822
    13  C   -0.086974
    14  N   -0.205379
    15  N   -0.508330
    16  H    0.137171
    17  H    0.248723
    18  H    0.377677
 Sum of Mulliken atomic charges =   0.00000

 Dipole moment (field-independent basis, Debye):
    X=             -0.7587    Y=             -0.3051    Z=              6.5786  Tot=              6.6292
 Quadrupole moment (field-independent basis, Debye-Ang):
   XX=           -105.8839   YY=            -73.0405   ZZ=            -68.8769
   XY=              7.6418   XZ=            -15.5822   YZ=             -1.1701

 Normal termination of Gaussian 09 at Wed Feb 19 12:54:22 2020.
