 Gaussian 09, Revision A.02,
 Gaussian 09:  EM64L-G09RevA.02 11-Jun-2009

 ----------------------------------------------
 #P opt=(,maxcycle=400) HF/6-31G* MaxDisk=100GB
 ----------------------------------------------

 -------------------------------------------------------------------
 ModifiedRes Rotatable Bond Optimization on g2-node38.bme.utexas.edu
 -------------------------------------------------------------------
 Symbolic Z-matrix:
 Charge =  0 Multiplicity = 1

 SCF Done:  E(RHF) =  -903.982297528     A.U. after   16 cycles
 SCF Done:  E(RHF) =  -903.998293368     A.U. after   15 cycles
 SCF Done:  E(RHF) =  -904.003500019     A.U. after   15 cycles
 SCF Done:  E(RHF) =  -904.007327149     A.U. after   17 cycles
 SCF Done:  E(RHF) =  -904.009084660     A.U. after   15 cycles
 SCF Done:  E(RHF) =  -904.010594567     A.U. after   14 cycles
 SCF Done:  E(RHF) =  -904.010592135     A.U. after   14 cycles
 SCF Done:  E(RHF) =  -904.011546902     A.U. after   13 cycles
 SCF Done:  E(RHF) =  -904.011676802     A.U. after   15 cycles
 SCF Done:  E(RHF) =  -904.012089372     A.U. after   13 cycles
 SCF Done:  E(RHF) =  -904.012229088     A.U. after   13 cycles
 SCF Done:  E(RHF) =  -904.012310493     A.U. after   13 cycles
 SCF Done:  E(RHF) =  -904.012339116     A.U. after   12 cycles
 SCF Done:  E(RHF) =  -904.012356479     A.U. after   17 cycles
 SCF Done:  E(RHF) =  -904.012369655     A.U. after   17 cycles
 SCF Done:  E(RHF) =  -904.012375754     A.U. after   11 cycles
 SCF Done:  E(RHF) =  -904.012376723     A.U. after    9 cycles
 Optimization completed.
    -- Stationary point found.

                         Standard orientation:
 ---------------------------------------------------------------------
 Center     Atomic      Atomic             Coordinates (Angstroms)
 Number     Number       Type             X           Y           Z
 ---------------------------------------------------------------------
      1          6           0        2.486378   -1.408664    0.502452
      2          8           0        2.563699   -1.673874   -0.662431
      3          7           0        1.511472   -0.654500    1.052926
      4          1           0        1.621203   -0.358097    1.997667
      5          6           0        0.450894   -0.060914    0.253525
      6          1           0        0.247096   -0.749042   -0.554064
      7          6           0        0.921938    1.287403   -0.311562
      8          8           0        0.625271    2.321679    0.221292
      9          1           0       -1.022304   -0.797526    1.644415
     10          1           0       -0.633830    0.911857    1.837363
     11          6           0       -0.789234    0.117967    1.121047
     12         16           0       -2.261931    0.641022    0.176028
     13          6           0       -2.730267   -0.877245   -0.452764
     14          7           0       -3.052702   -1.880399   -0.881160
     15          7           0        1.693640    1.196161   -1.406520
     16          1           0        3.209951   -1.770300    1.230574
     17          1           0        2.036015    0.315341   -1.723487
     18          1           0        2.115883    2.028855   -1.752697
 ---------------------------------------------------------------------

 The electronic state is 1-A.
 Alpha  occ. eigenvalues --  -92.00863 -20.56461 -20.54496 -15.62796 -15.59430
 Alpha  occ. eigenvalues --  -15.58746 -11.38038 -11.36828 -11.31372 -11.30272
 Alpha  occ. eigenvalues --  -11.29858  -9.01734  -6.70029  -6.69842  -6.69640
 Alpha  occ. eigenvalues --   -1.42893  -1.41177  -1.27998  -1.24170  -1.22911
 Alpha  occ. eigenvalues --   -1.12156  -1.02501  -0.91627  -0.86259  -0.81383
 Alpha  occ. eigenvalues --   -0.77043  -0.75260  -0.70997  -0.69364  -0.67133
 Alpha  occ. eigenvalues --   -0.63760  -0.62944  -0.61649  -0.58420  -0.57546
 Alpha  occ. eigenvalues --   -0.56718  -0.55815  -0.53262  -0.52322  -0.47143
 Alpha  occ. eigenvalues --   -0.46746  -0.45118  -0.42619  -0.41422  -0.38526
 Alpha virt. eigenvalues --    0.13038   0.16240   0.18970   0.19916   0.19981
 Alpha virt. eigenvalues --    0.21905   0.23451   0.23763   0.24125   0.27338
 Alpha virt. eigenvalues --    0.29128   0.30641   0.31373   0.35215   0.37769

 Mulliken atomic charges:
              1
     1  C    0.521015
     2  O   -0.575389
     3  N   -0.768060
     4  H    0.399312
     5  C   -0.066830
     6  H    0.257278
     7  C    0.775421
     8  O   -0.611115
     9  H    0.242456
    10  H    0.251661
    11  C   -0.522240
    12  S    0.311100
    13  C    0.084182
    14  N   -0.382759
    15  N   -0.927023
    16  H    0.177537
    17  H    0.434916
    18  H    0.398539
 Sum of Mulliken atomic charges =   0.00000

 Dipole moment (field-independent basis, Debye):
    X=              3.6629    Y=              0.8505    Z=              3.5268  Tot=              5.1555
 Quadrupole moment (field-independent basis, Debye-Ang):
   XX=            -74.8535   YY=            -86.0773   ZZ=            -63.7283
   XY=             -3.9867   XZ=              0.4456   YZ=            -10.1347

 Normal termination of Gaussian 09 at Wed Feb 19 12:35:32 2020.
