 Gaussian 09, Revision A.02,
 Gaussian 09:  EM64L-G09RevA.02 11-Jun-2009

 ----------------------------------------------
 #P opt=(,maxcycle=400) HF/6-31G* MaxDisk=100GB
 ----------------------------------------------

 -------------------------------------------------------------------
 ModifiedRes Rotatable Bond Optimization on g2-node38.bme.utexas.edu
 -------------------------------------------------------------------
 Symbolic Z-matrix:
 Charge =  0 Multiplicity = 1

 SCF Done:  E(RHF) =  -903.994321514     A.U. after   16 cycles
 SCF Done:  E(RHF) =  -904.008505499     A.U. after   14 cycles
 SCF Done:  E(RHF) =  -904.009955585     A.U. after   17 cycles
 SCF Done:  E(RHF) =  -904.009843263     A.U. after   15 cycles
 SCF Done:  E(RHF) =  -904.011028049     A.U. after   13 cycles
 SCF Done:  E(RHF) =  -904.011185032     A.U. after   13 cycles
 SCF Done:  E(RHF) =  -904.011193063     A.U. after   12 cycles
 SCF Done:  E(RHF) =  -904.011376819     A.U. after   12 cycles
 SCF Done:  E(RHF) =  -904.011448441     A.U. after   12 cycles
 SCF Done:  E(RHF) =  -904.011469546     A.U. after   13 cycles
 SCF Done:  E(RHF) =  -904.011479993     A.U. after   12 cycles
 SCF Done:  E(RHF) =  -904.011481276     A.U. after   10 cycles
 SCF Done:  E(RHF) =  -904.011481467     A.U. after   10 cycles
 SCF Done:  E(RHF) =  -904.011481495     A.U. after    9 cycles
 Optimization completed.
    -- Stationary point found.

                         Standard orientation:
 ---------------------------------------------------------------------
 Center     Atomic      Atomic             Coordinates (Angstroms)
 Number     Number       Type             X           Y           Z
 ---------------------------------------------------------------------
      1          6           0        1.915687   -1.808579    0.474695
      2          8           0        2.539487   -1.848472   -0.547319
      3          7           0        0.972543   -0.886571    0.757564
      4          1           0        0.595673   -0.861136    1.679595
      5          6           0        0.605130    0.165412   -0.176180
      6          1           0        0.716598   -0.245165   -1.170370
      7          6           0        1.544176    1.374196   -0.029403
      8          8           0        1.191246    2.377201    0.524090
      9          1           0       -0.966768    1.028071    1.031469
     10          1           0       -1.092588    1.372212   -0.678099
     11          6           0       -0.834716    0.613815    0.044126
     12         16           0       -1.956504   -0.821408   -0.177706
     13          6           0       -3.448575    0.001994   -0.102061
     14          7           0       -4.455942    0.527263   -0.052990
     15          7           0        2.762685    1.196333   -0.567924
     16          1           0        2.059667   -2.533273    1.273169
     17          1           0        3.054462    0.306120   -0.908927
     18          1           0        3.445935    1.905660   -0.421323
 ---------------------------------------------------------------------

 The electronic state is 1-A.
 Alpha  occ. eigenvalues --  -92.01092 -20.56943 -20.54874 -15.63318 -15.59691
 Alpha  occ. eigenvalues --  -15.58909 -11.38515 -11.37292 -11.32195 -11.30403
 Alpha  occ. eigenvalues --  -11.30073  -9.02000  -6.70309  -6.70119  -6.69915
 Alpha  occ. eigenvalues --   -1.43377  -1.41615  -1.28588  -1.24300  -1.23198
 Alpha  occ. eigenvalues --   -1.12246  -1.03305  -0.91358  -0.87053  -0.81769
 Alpha  occ. eigenvalues --   -0.76976  -0.75842  -0.71461  -0.69980  -0.67176
 Alpha  occ. eigenvalues --   -0.64516  -0.62832  -0.62086  -0.58995  -0.58403
 Alpha  occ. eigenvalues --   -0.57103  -0.56109  -0.53407  -0.52340  -0.47401
 Alpha  occ. eigenvalues --   -0.46510  -0.46144  -0.42872  -0.41762  -0.38698
 Alpha virt. eigenvalues --    0.12892   0.15869   0.17632   0.19442   0.20873
 Alpha virt. eigenvalues --    0.21180   0.22431   0.23472   0.24299   0.27396
 Alpha virt. eigenvalues --    0.28399   0.29670   0.32296   0.34509   0.37788

 Mulliken atomic charges:
              1
     1  C    0.521808
     2  O   -0.579183
     3  N   -0.768361
     4  H    0.406907
     5  C   -0.100314
     6  H    0.253897
     7  C    0.775400
     8  O   -0.596750
     9  H    0.246088
    10  H    0.252413
    11  C   -0.492842
    12  S    0.285961
    13  C    0.084639
    14  N   -0.376510
    15  N   -0.934206
    16  H    0.182730
    17  H    0.438953
    18  H    0.399371
 Sum of Mulliken atomic charges =   0.00000

 Dipole moment (field-independent basis, Debye):
    X=              4.1252    Y=             -2.0513    Z=              1.5066  Tot=              4.8472
 Quadrupole moment (field-independent basis, Debye-Ang):
   XX=            -89.2693   YY=            -79.2369   ZZ=            -67.5920
   XY=              6.4363   XZ=              2.5810   YZ=             -8.6412

 Normal termination of Gaussian 09 at Wed Feb 19 12:51:59 2020.
