 Gaussian 09, Revision A.02,
 Gaussian 09:  EM64L-G09RevA.02 11-Jun-2009

 ----------------------------------------------------------------------
 #P MP2/6-311++G** SP SCF=(qc,maxcycle=800) Guess=Indo MaxDisk=100GB Po
 p=NBORead
 ----------------------------------------------------------------------

 ---------------------------------------------------------------------
 ModifiedRes Rotatable Bond SP Calculation on g2-node38.bme.utexas.edu
 ---------------------------------------------------------------------
 Symbolic Z-matrix:
 Charge =  0 Multiplicity = 1

                         Standard orientation:
 ---------------------------------------------------------------------
 Center     Atomic      Atomic             Coordinates (Angstroms)
 Number     Number       Type             X           Y           Z
 ---------------------------------------------------------------------
      1          6           0        1.804529   -1.853663    0.617403
      2          8           0        2.596869   -1.880266   -0.331109
      3          7           0        0.855289   -0.883666    0.754926
      4          1           0        0.364053   -0.815693    1.641942
      5          6           0        0.634101    0.162185   -0.258681
      6          1           0        0.851622   -0.285342   -1.239575
      7          6           0        1.603349    1.340375   -0.026306
      8          8           0        1.183214    2.385803    0.472061
      9          1           0       -1.049763    1.108873    0.740791
     10          1           0       -0.955435    1.410970   -1.009382
     11          6           0       -0.825161    0.658637   -0.228956
     12         16           0       -2.006292   -0.725448   -0.549970
     13          6           0       -3.426273   -0.033162    0.082915
     14          7           0       -4.411123    0.475439    0.503469
     15          7           0        2.891819    1.124994   -0.402143
     16          1           0        1.823742   -2.593982    1.432418
     17          1           0        3.167790    0.204326   -0.734871
     18          1           0        3.562831    1.870120   -0.271434
 ---------------------------------------------------------------------

 SCF Done:  E(RHF) =  -904.161255385     a.u. after   11 cycles
 E2 =    -0.1755775227D+01 EUMP2 =    -0.90591703061234D+03

 The electronic state is 1-A.
 Alpha  occ. eigenvalues --  -92.02922 -20.56502 -20.54756 -15.63696 -15.60507
 Alpha  occ. eigenvalues --  -15.60173 -11.39709 -11.38620 -11.33735 -11.31741
 Alpha  occ. eigenvalues --  -11.31525  -9.03055  -6.71313  -6.71131  -6.70980
 Alpha  occ. eigenvalues --   -1.41734  -1.40261  -1.27852  -1.23123  -1.22829
 Alpha  occ. eigenvalues --   -1.12154  -1.03775  -0.91749  -0.87204  -0.81483
 Alpha  occ. eigenvalues --   -0.76719  -0.75757  -0.71936  -0.69922  -0.67610
 Alpha  occ. eigenvalues --   -0.64391  -0.63044  -0.61753  -0.59092  -0.58319
 Alpha  occ. eigenvalues --   -0.56989  -0.56736  -0.53124  -0.52068  -0.47790
 Alpha  occ. eigenvalues --   -0.46931  -0.45888  -0.43305  -0.42529  -0.39174
 Alpha virt. eigenvalues --    0.02857   0.04020   0.05110   0.05564   0.07065
 Alpha virt. eigenvalues --    0.07287   0.08706   0.08776   0.09394   0.10571
 Alpha virt. eigenvalues --    0.10778   0.11872   0.12482   0.13022   0.13032

 Mulliken atomic charges:
              1
     1  C    0.312347
     2  O   -0.461931
     3  N   -0.056787
     4  H    0.327768
     5  C   -0.499132
     6  H    0.275873
     7  C    0.300387
     8  O   -0.398348
     9  H    0.256811
    10  H    0.244894
    11  C   -0.490988
    12  S    0.198339
    13  C   -0.163828
    14  N   -0.186342
    15  N   -0.513299
    16  H    0.162469
    17  H    0.320406
    18  H    0.371363
 Sum of Mulliken atomic charges =   0.00000

 Dipole moment (field-independent basis, Debye):
    X=              3.7838    Y=             -2.1904    Z=              0.3614  Tot=              4.3870
 Quadrupole moment (field-independent basis, Debye-Ang):
   XX=            -92.6227   YY=            -81.1236   ZZ=            -68.3602
   XY=              7.5173   XZ=              5.3103   YZ=             -9.4865

 Normal termination of Gaussian 09 at Wed Feb 19 13:01:21 2020.
