 Gaussian 09, Revision A.02,
 Gaussian 09:  EM64L-G09RevA.02 11-Jun-2009

 ----------------------------------------------------------------------
 #P MP2/6-311++G** SP SCF=(qc,maxcycle=800) Guess=Indo MaxDisk=100GB Po
 p=NBORead
 ----------------------------------------------------------------------

 ---------------------------------------------------------------------
 ModifiedRes Rotatable Bond SP Calculation on g2-node38.bme.utexas.edu
 ---------------------------------------------------------------------
 Symbolic Z-matrix:
 Charge =  0 Multiplicity = 1

                         Standard orientation:
 ---------------------------------------------------------------------
 Center     Atomic      Atomic             Coordinates (Angstroms)
 Number     Number       Type             X           Y           Z
 ---------------------------------------------------------------------
      1          6           0       -1.792475   -1.942516   -0.204360
      2          8           0       -2.190705   -1.883027    0.964382
      3          7           0       -1.020980   -0.969678   -0.769629
      4          1           0       -0.815324   -1.033702   -1.762423
      5          6           0       -0.500009    0.174580   -0.002596
      6          1           0       -0.315162   -0.171117    1.025030
      7          6           0       -1.558001    1.298003    0.033951
      8          8           0       -1.433006    2.275324   -0.706305
      9          1           0        0.645500    1.046239   -1.640781
     10          1           0        1.123624    1.575673   -0.020890
     11          6           0        0.812266    0.713274   -0.613361
     12         16           0        2.114854   -0.593965   -0.654666
     13          6           0        3.161306    0.016882    0.540616
     14          7           0        3.856193    0.442415    1.401505
     15          7           0       -2.581578    1.113344    0.908648
     16          1           0       -2.050351   -2.772330   -0.881146
     17          1           0       -2.655434    0.229323    1.406063
     18          1           0       -3.294791    1.827069    0.975002
 ---------------------------------------------------------------------

 SCF Done:  E(RHF) =  -904.160025743     a.u. after   12 cycles
 E2 =    -0.1756582981D+01 EUMP2 =    -0.90591660872422D+03

 The electronic state is 1-A.
 Alpha  occ. eigenvalues --  -92.03115 -20.56345 -20.54449 -15.63715 -15.60200
 Alpha  occ. eigenvalues --  -15.60117 -11.39592 -11.38198 -11.33154 -11.31780
 Alpha  occ. eigenvalues --  -11.31622  -9.03250  -6.71509  -6.71324  -6.71179
 Alpha  occ. eigenvalues --   -1.41537  -1.39968  -1.27732  -1.22886  -1.22812
 Alpha  occ. eigenvalues --   -1.12187  -1.03549  -0.91876  -0.87143  -0.81160
 Alpha  occ. eigenvalues --   -0.76624  -0.75361  -0.71389  -0.70767  -0.67615
 Alpha  occ. eigenvalues --   -0.63850  -0.62519  -0.61660  -0.59248  -0.57767
 Alpha  occ. eigenvalues --   -0.56928  -0.56134  -0.53700  -0.52255  -0.47525
 Alpha  occ. eigenvalues --   -0.46877  -0.45989  -0.43029  -0.42226  -0.39313
 Alpha virt. eigenvalues --    0.02492   0.04403   0.04823   0.05910   0.07014
 Alpha virt. eigenvalues --    0.07608   0.08270   0.08827   0.09514   0.10439
 Alpha virt. eigenvalues --    0.10979   0.11247   0.12127   0.13035   0.13095

 Mulliken atomic charges:
              1
     1  C    0.279244
     2  O   -0.456969
     3  N   -0.158708
     4  H    0.353158
     5  C   -0.444437
     6  H    0.301060
     7  C    0.192005
     8  O   -0.410340
     9  H    0.294219
    10  H    0.222286
    11  C   -0.475771
    12  S    0.473333
    13  C   -0.344404
    14  N   -0.183511
    15  N   -0.478635
    16  H    0.154816
    17  H    0.320370
    18  H    0.362284
 Sum of Mulliken atomic charges =   0.00000

 Dipole moment (field-independent basis, Debye):
    X=             -3.1740    Y=             -2.2620    Z=             -3.3362  Tot=              5.1304
 Quadrupole moment (field-independent basis, Debye-Ang):
   XX=            -85.8398   YY=            -78.5834   ZZ=            -73.0939
   XY=             -2.3267   XZ=             -7.2287   YZ=             10.7754

 Normal termination of Gaussian 09 at Wed Feb 19 13:02:58 2020.
