 Gaussian 09, Revision A.02,
 Gaussian 09:  EM64L-G09RevA.02 11-Jun-2009

 ----------------------------------------------------------------------
 #P MP2/6-311++G** SP SCF=(qc,maxcycle=800) Guess=Indo MaxDisk=100GB Po
 p=NBORead
 ----------------------------------------------------------------------

 ---------------------------------------------------------------------
 ModifiedRes Rotatable Bond SP Calculation on g2-node38.bme.utexas.edu
 ---------------------------------------------------------------------
 Symbolic Z-matrix:
 Charge =  0 Multiplicity = 1

                         Standard orientation:
 ---------------------------------------------------------------------
 Center     Atomic      Atomic             Coordinates (Angstroms)
 Number     Number       Type             X           Y           Z
 ---------------------------------------------------------------------
      1          6           0       -0.507705    2.104497    0.283902
      2          8           0       -1.177610    2.365758   -0.723227
      3          7           0       -0.221063    0.823344    0.652528
      4          1           0        0.225011    0.675861    1.553141
      5          6           0       -0.533463   -0.337819   -0.196939
      6          1           0       -0.470648   -0.000610   -1.242091
      7          6           0       -1.972648   -0.818843    0.079465
      8          8           0       -2.150832   -1.882465    0.676967
      9          1           0        0.402648   -1.807707    1.071559
     10          1           0        0.132487   -2.328559   -0.616583
     11          6           0        0.462886   -1.506099    0.023343
     12         16           0        2.221149   -1.183269   -0.457974
     13          6           0        2.578672    0.394933    0.079113
     14          7           0        2.813999    1.480423    0.499101
     15          7           0       -2.964804   -0.012464   -0.381319
     16          1           0       -0.119549    2.877831    0.964130
     17          1           0       -2.718494    0.875238   -0.813369
     18          1           0       -3.925672   -0.285236   -0.224600
 ---------------------------------------------------------------------

 SCF Done:  E(RHF) =  -904.155928690     a.u. after   11 cycles
 E2 =    -0.1759853022D+01 EUMP2 =    -0.90591578171194D+03

 The electronic state is 1-A.
 Alpha  occ. eigenvalues --  -92.03288 -20.55454 -20.54336 -15.62494 -15.60685
 Alpha  occ. eigenvalues --  -15.59939 -11.38603 -11.38096 -11.33139 -11.32645
 Alpha  occ. eigenvalues --  -11.32036  -9.03392  -6.71655  -6.71457  -6.71316
 Alpha  occ. eigenvalues --   -1.40778  -1.39740  -1.26984  -1.23390  -1.22541
 Alpha  occ. eigenvalues --   -1.11897  -1.03363  -0.92285  -0.86289  -0.80733
 Alpha  occ. eigenvalues --   -0.76372  -0.75057  -0.70843  -0.69415  -0.68056
 Alpha  occ. eigenvalues --   -0.63702  -0.63032  -0.60824  -0.58783  -0.58053
 Alpha  occ. eigenvalues --   -0.57064  -0.55767  -0.53997  -0.52629  -0.47240
 Alpha  occ. eigenvalues --   -0.46775  -0.45675  -0.42855  -0.41496  -0.39360
 Alpha virt. eigenvalues --    0.03670   0.04496   0.04873   0.05966   0.06968
 Alpha virt. eigenvalues --    0.07340   0.08333   0.09354   0.09854   0.10379
 Alpha virt. eigenvalues --    0.11274   0.11413   0.12359   0.12854   0.13241

 Mulliken atomic charges:
              1
     1  C    0.241069
     2  O   -0.457954
     3  N   -0.134279
     4  H    0.366576
     5  C   -0.386979
     6  H    0.268297
     7  C    0.279862
     8  O   -0.417552
     9  H    0.261290
    10  H    0.226912
    11  C   -0.474699
    12  S    0.127596
    13  C   -0.033528
    14  N   -0.222825
    15  N   -0.512883
    16  H    0.178421
    17  H    0.329007
    18  H    0.361668
 Sum of Mulliken atomic charges =   0.00000

 Dipole moment (field-independent basis, Debye):
    X=             -0.9037    Y=             -1.3360    Z=              0.4844  Tot=              1.6841
 Quadrupole moment (field-independent basis, Debye-Ang):
   XX=            -77.6436   YY=            -82.6020   ZZ=            -71.3678
   XY=             -9.6384   XZ=              1.1081   YZ=              8.5741

 Normal termination of Gaussian 09 at Wed Feb 19 13:06:12 2020.
