 Gaussian 09, Revision A.02,
 Gaussian 09:  EM64L-G09RevA.02 11-Jun-2009

 ----------------------------------------------------------------------
 #P MP2/6-311++G** SP SCF=(qc,maxcycle=800) Guess=Indo MaxDisk=100GB Po
 p=NBORead
 ----------------------------------------------------------------------

 ---------------------------------------------------------------------
 ModifiedRes Rotatable Bond SP Calculation on g2-node38.bme.utexas.edu
 ---------------------------------------------------------------------
 Symbolic Z-matrix:
 Charge =  0 Multiplicity = 1

                         Standard orientation:
 ---------------------------------------------------------------------
 Center     Atomic      Atomic             Coordinates (Angstroms)
 Number     Number       Type             X           Y           Z
 ---------------------------------------------------------------------
      1          6           0        2.220415   -1.708322    0.566288
      2          8           0        2.752698   -1.679776   -0.549192
      3          7           0        1.203855   -0.868945    0.916928
      4          1           0        0.938132   -0.820139    1.896102
      5          6           0        0.597316    0.081200   -0.031041
      6          1           0        0.633405   -0.391484   -1.023074
      7          6           0        1.416737    1.389496   -0.069261
      8          8           0        0.987108    2.396974    0.494999
      9          1           0       -1.024216    0.269515    1.430145
     10          1           0       -1.124376    1.396494    0.071400
     11          6           0       -0.872226    0.371043    0.354818
     12         16           0       -2.003285   -0.784384   -0.533830
     13          6           0       -3.495828   -0.091067   -0.102686
     14          7           0       -4.526178    0.387047    0.236836
     15          7           0        2.593062    1.325749   -0.747306
     16          1           0        2.545147   -2.393518    1.364970
     17          1           0        2.908308    0.432016   -1.116662
     18          1           0        3.164060    2.158609   -0.801972
 ---------------------------------------------------------------------

 SCF Done:  E(RHF) =  -904.158528929     a.u. after   11 cycles
 E2 =    -0.1755480190D+01 EUMP2 =    -0.90591400911886D+03

 The electronic state is 1-A.
 Alpha  occ. eigenvalues --  -92.02806 -20.56664 -20.54730 -15.63961 -15.60499
 Alpha  occ. eigenvalues --  -15.60079 -11.39864 -11.38585 -11.33809 -11.31586
 Alpha  occ. eigenvalues --  -11.31375  -9.02942  -6.71200  -6.71016  -6.70861
 Alpha  occ. eigenvalues --   -1.41878  -1.40273  -1.28003  -1.23113  -1.22719
 Alpha  occ. eigenvalues --   -1.12181  -1.03587  -0.91808  -0.87340  -0.81715
 Alpha  occ. eigenvalues --   -0.76784  -0.75804  -0.71995  -0.70159  -0.67299
 Alpha  occ. eigenvalues --   -0.64586  -0.63206  -0.60753  -0.59383  -0.58649
 Alpha  occ. eigenvalues --   -0.57134  -0.56467  -0.53231  -0.51848  -0.47865
 Alpha  occ. eigenvalues --   -0.47207  -0.45681  -0.43311  -0.42517  -0.39092
 Alpha virt. eigenvalues --    0.02493   0.04206   0.05114   0.05625   0.07459
 Alpha virt. eigenvalues --    0.07683   0.08226   0.08554   0.09628   0.10474
 Alpha virt. eigenvalues --    0.10719   0.11724   0.12339   0.12889   0.13300

 Mulliken atomic charges:
              1
     1  C    0.294756
     2  O   -0.454650
     3  N   -0.100241
     4  H    0.328281
     5  C   -0.115093
     6  H    0.273700
     7  C    0.029080
     8  O   -0.416008
     9  H    0.170217
    10  H    0.267092
    11  C   -0.505422
    12  S    0.161296
    13  C   -0.100266
    14  N   -0.200391
    15  N   -0.477730
    16  H    0.160748
    17  H    0.316997
    18  H    0.367636
 Sum of Mulliken atomic charges =   0.00000

 Dipole moment (field-independent basis, Debye):
    X=              4.5199    Y=             -2.3628    Z=              1.4261  Tot=              5.2959
 Quadrupole moment (field-independent basis, Debye-Ang):
   XX=            -93.4481   YY=            -80.2841   ZZ=            -67.4268
   XY=              6.3672   XZ=              5.1744   YZ=            -10.0515

 Normal termination of Gaussian 09 at Wed Feb 19 12:41:42 2020.
