 Gaussian 09, Revision A.02,
 Gaussian 09:  EM64L-G09RevA.02 11-Jun-2009

 ----------------------------------------------------------------------
 #P MP2/6-311++G** SP SCF=(qc,maxcycle=800) Guess=Indo MaxDisk=100GB Po
 p=NBORead
 ----------------------------------------------------------------------

 ---------------------------------------------------------------------
 ModifiedRes Rotatable Bond SP Calculation on g2-node38.bme.utexas.edu
 ---------------------------------------------------------------------
 Symbolic Z-matrix:
 Charge =  0 Multiplicity = 1

                         Standard orientation:
 ---------------------------------------------------------------------
 Center     Atomic      Atomic             Coordinates (Angstroms)
 Number     Number       Type             X           Y           Z
 ---------------------------------------------------------------------
      1          6           0        1.997186   -1.811667    0.449629
      2          8           0        2.691053   -1.737844   -0.570995
      3          7           0        0.994214   -0.928309    0.725466
      4          1           0        0.611301   -0.923057    1.666668
      5          6           0        0.608238    0.153884   -0.197179
      6          1           0        0.727354   -0.250458   -1.212883
      7          6           0        1.551623    1.362065   -0.013899
      8          8           0        1.160207    2.346309    0.615853
      9          1           0       -0.953888    1.043090    1.015051
     10          1           0       -1.122606    1.320230   -0.736331
     11          6           0       -0.855248    0.586419    0.026766
     12         16           0       -2.012649   -0.846714   -0.109951
     13          6           0       -3.494543   -0.011262   -0.124004
     14          7           0       -4.540969    0.545854   -0.136062
     15          7           0        2.781775    1.243390   -0.578866
     16          1           0        2.153475   -2.580414    1.222662
     17          1           0        3.056671    0.354143   -0.988738
     18          1           0        3.431321    2.012981   -0.487715
 ---------------------------------------------------------------------

 SCF Done:  E(RHF) =  -904.161589482     a.u. after   11 cycles
 E2 =    -0.1755813690D+01 EUMP2 =    -0.90591740317140D+03

 The electronic state is 1-A.
 Alpha  occ. eigenvalues --  -92.02945 -20.56742 -20.54724 -15.63954 -15.60463
 Alpha  occ. eigenvalues --  -15.60151 -11.39938 -11.38597 -11.33743 -11.31669
 Alpha  occ. eigenvalues --  -11.31492  -9.03073  -6.71331  -6.71150  -6.70996
 Alpha  occ. eigenvalues --   -1.41926  -1.40254  -1.28067  -1.23125  -1.22772
 Alpha  occ. eigenvalues --   -1.12142  -1.03801  -0.91733  -0.87389  -0.81494
 Alpha  occ. eigenvalues --   -0.76765  -0.75859  -0.71740  -0.70181  -0.67778
 Alpha  occ. eigenvalues --   -0.64382  -0.62683  -0.62337  -0.59106  -0.58063
 Alpha  occ. eigenvalues --   -0.56957  -0.56636  -0.53376  -0.51927  -0.47970
 Alpha  occ. eigenvalues --   -0.47094  -0.45858  -0.43303  -0.42635  -0.39147
 Alpha virt. eigenvalues --    0.02700   0.04118   0.05170   0.05455   0.07116
 Alpha virt. eigenvalues --    0.07507   0.08547   0.08708   0.09521   0.10672
 Alpha virt. eigenvalues --    0.10818   0.11721   0.12544   0.12863   0.12973

 Mulliken atomic charges:
              1
     1  C    0.294087
     2  O   -0.457526
     3  N   -0.121590
     4  H    0.334445
     5  C   -0.411763
     6  H    0.267803
     7  C    0.287655
     8  O   -0.403546
     9  H    0.256259
    10  H    0.235415
    11  C   -0.451603
    12  S    0.129460
    13  C   -0.114701
    14  N   -0.196122
    15  N   -0.497900
    16  H    0.162256
    17  H    0.322090
    18  H    0.365280
 Sum of Mulliken atomic charges =   0.00000

 Dipole moment (field-independent basis, Debye):
    X=              4.1402    Y=             -2.4242    Z=              1.2210  Tot=              4.9507
 Quadrupole moment (field-independent basis, Debye-Ang):
   XX=            -94.1238   YY=            -79.4524   ZZ=            -69.1018
   XY=              7.1048   XZ=              1.6786   YZ=            -10.1329

 Normal termination of Gaussian 09 at Wed Feb 19 12:47:29 2020.
