 Gaussian 09, Revision A.02,
 Gaussian 09:  EM64L-G09RevA.02 11-Jun-2009

 ----------------------------------------------
 #P opt=(,maxcycle=400) HF/6-31G* MaxDisk=100GB
 ----------------------------------------------

 -------------------------------------------------------------------
 ModifiedRes Rotatable Bond Optimization on g2-node38.bme.utexas.edu
 -------------------------------------------------------------------
 Symbolic Z-matrix:
 Charge =  0 Multiplicity = 1

 SCF Done:  E(RHF) =  -903.990226322     A.U. after   16 cycles
 SCF Done:  E(RHF) =  -904.005161162     A.U. after   14 cycles
 SCF Done:  E(RHF) =  -904.006427700     A.U. after   15 cycles
 SCF Done:  E(RHF) =  -904.006220063     A.U. after   14 cycles
 SCF Done:  E(RHF) =  -904.007417980     A.U. after   13 cycles
 SCF Done:  E(RHF) =  -904.008386765     A.U. after   15 cycles
 SCF Done:  E(RHF) =  -904.009364671     A.U. after   15 cycles
 SCF Done:  E(RHF) =  -904.008511567     A.U. after   14 cycles
 SCF Done:  E(RHF) =  -904.010306658     A.U. after   13 cycles
 SCF Done:  E(RHF) =  -904.010558247     A.U. after   13 cycles
 SCF Done:  E(RHF) =  -904.010964618     A.U. after   13 cycles
 SCF Done:  E(RHF) =  -904.011152563     A.U. after   13 cycles
 SCF Done:  E(RHF) =  -904.011357295     A.U. after   13 cycles
 SCF Done:  E(RHF) =  -904.011424947     A.U. after   12 cycles
 SCF Done:  E(RHF) =  -904.011461435     A.U. after   12 cycles
 SCF Done:  E(RHF) =  -904.011473685     A.U. after   12 cycles
 SCF Done:  E(RHF) =  -904.011479110     A.U. after   11 cycles
 SCF Done:  E(RHF) =  -904.011481334     A.U. after   11 cycles
 SCF Done:  E(RHF) =  -904.011481511     A.U. after    9 cycles
 SCF Done:  E(RHF) =  -904.011481522     A.U. after    8 cycles
 Optimization completed.
    -- Stationary point found.

                         Standard orientation:
 ---------------------------------------------------------------------
 Center     Atomic      Atomic             Coordinates (Angstroms)
 Number     Number       Type             X           Y           Z
 ---------------------------------------------------------------------
      1          6           0        1.915360   -1.808686    0.474578
      2          8           0        2.538816   -1.848908   -0.547628
      3          7           0        0.972377   -0.886523    0.757511
      4          1           0        0.596371   -0.860371    1.679881
      5          6           0        0.605163    0.165545   -0.176216
      6          1           0        0.716659   -0.245115   -1.170362
      7          6           0        1.544335    1.374241   -0.029468
      8          8           0        1.191283    2.377610    0.523311
      9          1           0       -0.966726    1.028595    1.031154
     10          1           0       -1.092602    1.372152   -0.678504
     11          6           0       -0.834672    0.614001    0.043956
     12         16           0       -1.956400   -0.821338   -0.177357
     13          6           0       -3.448512    0.002022   -0.102023
     14          7           0       -4.455913    0.527254   -0.053179
     15          7           0        2.763162    1.195831   -0.566990
     16          1           0        2.059459   -2.533245    1.273143
     17          1           0        3.054726    0.305727   -0.908427
     18          1           0        3.446287    1.905386   -0.420990
 ---------------------------------------------------------------------

 The electronic state is 1-A.
 Alpha  occ. eigenvalues --  -92.01090 -20.56944 -20.54873 -15.63317 -15.59693
 Alpha  occ. eigenvalues --  -15.58907 -11.38514 -11.37293 -11.32195 -11.30401
 Alpha  occ. eigenvalues --  -11.30072  -9.01998  -6.70307  -6.70117  -6.69913
 Alpha  occ. eigenvalues --   -1.43377  -1.41614  -1.28588  -1.24299  -1.23199
 Alpha  occ. eigenvalues --   -1.12245  -1.03304  -0.91357  -0.87053  -0.81772
 Alpha  occ. eigenvalues --   -0.76978  -0.75843  -0.71458  -0.69982  -0.67175
 Alpha  occ. eigenvalues --   -0.64517  -0.62831  -0.62085  -0.58995  -0.58407
 Alpha  occ. eigenvalues --   -0.57101  -0.56108  -0.53406  -0.52338  -0.47402
 Alpha  occ. eigenvalues --   -0.46509  -0.46143  -0.42870  -0.41764  -0.38697
 Alpha virt. eigenvalues --    0.12894   0.15867   0.17635   0.19444   0.20874
 Alpha virt. eigenvalues --    0.21182   0.22431   0.23473   0.24298   0.27396
 Alpha virt. eigenvalues --    0.28398   0.29670   0.32295   0.34511   0.37791

 Mulliken atomic charges:
              1
     1  C    0.521806
     2  O   -0.579173
     3  N   -0.768339
     4  H    0.406890
     5  C   -0.100373
     6  H    0.253912
     7  C    0.775436
     8  O   -0.596780
     9  H    0.246069
    10  H    0.252400
    11  C   -0.492790
    12  S    0.285996
    13  C    0.084627
    14  N   -0.376524
    15  N   -0.934266
    16  H    0.182737
    17  H    0.438965
    18  H    0.399405
 Sum of Mulliken atomic charges =   0.00000

 Dipole moment (field-independent basis, Debye):
    X=              4.1283    Y=             -2.0495    Z=              1.5070  Tot=              4.8492
 Quadrupole moment (field-independent basis, Debye-Ang):
   XX=            -89.2635   YY=            -79.2444   ZZ=            -67.5860
   XY=              6.4367   XZ=              2.5787   YZ=             -8.6405

 Normal termination of Gaussian 09 at Wed Feb 19 12:48:03 2020.
