 Gaussian 09, Revision A.02,
 Gaussian 09:  EM64L-G09RevA.02 11-Jun-2009

 ----------------------------------------------
 #P opt=(,maxcycle=400) HF/6-31G* MaxDisk=100GB
 ----------------------------------------------

 -------------------------------------------------------------------
 ModifiedRes Rotatable Bond Optimization on g2-node38.bme.utexas.edu
 -------------------------------------------------------------------
 Symbolic Z-matrix:
 Charge =  0 Multiplicity = 1

 SCF Done:  E(RHF) =  -903.990716180     A.U. after   16 cycles
 SCF Done:  E(RHF) =  -904.004514333     A.U. after   14 cycles
 SCF Done:  E(RHF) =  -904.004576869     A.U. after   14 cycles
 SCF Done:  E(RHF) =  -904.006004591     A.U. after   12 cycles
 SCF Done:  E(RHF) =  -904.007013752     A.U. after   14 cycles
 SCF Done:  E(RHF) =  -904.007521687     A.U. after   16 cycles
 SCF Done:  E(RHF) =  -904.007805775     A.U. after   12 cycles
 SCF Done:  E(RHF) =  -904.008071279     A.U. after   14 cycles
 SCF Done:  E(RHF) =  -904.008268244     A.U. after   13 cycles
 SCF Done:  E(RHF) =  -904.008297602     A.U. after   13 cycles
 SCF Done:  E(RHF) =  -904.008319760     A.U. after   12 cycles
 SCF Done:  E(RHF) =  -904.008326395     A.U. after   12 cycles
 SCF Done:  E(RHF) =  -904.008330259     A.U. after   11 cycles
 SCF Done:  E(RHF) =  -904.008331572     A.U. after   11 cycles
 SCF Done:  E(RHF) =  -904.008331702     A.U. after    9 cycles
 SCF Done:  E(RHF) =  -904.008331747     A.U. after   10 cycles
 SCF Done:  E(RHF) =  -904.008331759     A.U. after    9 cycles
 Optimization completed.
    -- Stationary point found.

                         Standard orientation:
 ---------------------------------------------------------------------
 Center     Atomic      Atomic             Coordinates (Angstroms)
 Number     Number       Type             X           Y           Z
 ---------------------------------------------------------------------
      1          6           0        2.783262   -1.371902    0.260954
      2          8           0        3.179607   -1.075886   -0.829386
      3          7           0        1.568603   -1.040116    0.748935
      4          1           0        1.393678   -1.178399    1.720182
      5          6           0        0.637848   -0.224630   -0.013492
      6          1           0        0.801268   -0.467223   -1.054163
      7          6           0        0.951650    1.258696    0.237040
      8          8           0        0.399810    1.872976    1.105043
      9          1           0       -0.902422   -1.650611    0.434141
     10          1           0       -1.021548   -0.139999    1.356350
     11          6           0       -0.789641   -0.577401    0.397614
     12         16           0       -1.962611    0.085203   -0.843841
     13          6           0       -3.421533   -0.307396   -0.055590
     14          7           0       -4.405190   -0.569359    0.451392
     15          7           0        1.898627    1.771312   -0.571222
     16          1           0        3.379674   -1.955928    0.958935
     17          1           0        2.473232    1.171647   -1.122544
     18          1           0        2.238763    2.683479   -0.359588
 ---------------------------------------------------------------------

 The electronic state is 1-A.
 Alpha  occ. eigenvalues --  -92.00786 -20.56846 -20.54840 -15.63176 -15.59795
 Alpha  occ. eigenvalues --  -15.58676 -11.38403 -11.37142 -11.32050 -11.30205
 Alpha  occ. eigenvalues --  -11.29889  -9.01705  -6.70016  -6.69830  -6.69614
 Alpha  occ. eigenvalues --   -1.43284  -1.41569  -1.28390  -1.24081  -1.23248
 Alpha  occ. eigenvalues --   -1.12219  -1.02847  -0.91522  -0.86654  -0.81700
 Alpha  occ. eigenvalues --   -0.77247  -0.74924  -0.71639  -0.70377  -0.66428
 Alpha  occ. eigenvalues --   -0.64569  -0.63468  -0.61628  -0.58283  -0.57873
 Alpha  occ. eigenvalues --   -0.57360  -0.56134  -0.53136  -0.52060  -0.47201
 Alpha  occ. eigenvalues --   -0.46986  -0.45370  -0.43131  -0.41485  -0.38459
 Alpha virt. eigenvalues --    0.12540   0.15949   0.17428   0.19937   0.20491
 Alpha virt. eigenvalues --    0.21866   0.22729   0.24194   0.24494   0.27100
 Alpha virt. eigenvalues --    0.27838   0.30461   0.31858   0.34867   0.38525

 Mulliken atomic charges:
              1
     1  C    0.518654
     2  O   -0.576016
     3  N   -0.764398
     4  H    0.403323
     5  C   -0.086504
     6  H    0.249931
     7  C    0.763966
     8  O   -0.595214
     9  H    0.235924
    10  H    0.261121
    11  C   -0.503505
    12  S    0.298334
    13  C    0.087271
    14  N   -0.378800
    15  N   -0.921423
    16  H    0.179962
    17  H    0.428935
    18  H    0.398439
 Sum of Mulliken atomic charges =   0.00000

 Dipole moment (field-independent basis, Debye):
    X=              5.0519    Y=             -1.6091    Z=              0.7705  Tot=              5.3577
 Quadrupole moment (field-independent basis, Debye-Ang):
   XX=            -91.1651   YY=            -70.3656   ZZ=            -70.8220
   XY=              0.8482   XZ=             10.3162   YZ=             -9.3232

 Normal termination of Gaussian 09 at Wed Feb 19 12:35:17 2020.
