 Gaussian 09, Revision A.02,
 Gaussian 09:  EM64L-G09RevA.02 11-Jun-2009

 ----------------------------------------------
 #P opt=(,maxcycle=400) HF/6-31G* MaxDisk=100GB
 ----------------------------------------------

 -------------------------------------------------------------------
 ModifiedRes Rotatable Bond Optimization on g2-node38.bme.utexas.edu
 -------------------------------------------------------------------
 Symbolic Z-matrix:
 Charge =  0 Multiplicity = 1

 SCF Done:  E(RHF) =  -903.993075867     A.U. after   16 cycles
 SCF Done:  E(RHF) =  -904.007191533     A.U. after   14 cycles
 SCF Done:  E(RHF) =  -904.006510828     A.U. after   14 cycles
 SCF Done:  E(RHF) =  -904.008083150     A.U. after   13 cycles
 SCF Done:  E(RHF) =  -904.008187776     A.U. after   14 cycles
 SCF Done:  E(RHF) =  -904.008234104     A.U. after   13 cycles
 SCF Done:  E(RHF) =  -904.008283348     A.U. after   12 cycles
 SCF Done:  E(RHF) =  -904.008316409     A.U. after   11 cycles
 SCF Done:  E(RHF) =  -904.008329379     A.U. after   12 cycles
 SCF Done:  E(RHF) =  -904.008331339     A.U. after   11 cycles
 SCF Done:  E(RHF) =  -904.008331690     A.U. after    9 cycles
 Optimization completed.
    -- Stationary point found.

                         Standard orientation:
 ---------------------------------------------------------------------
 Center     Atomic      Atomic             Coordinates (Angstroms)
 Number     Number       Type             X           Y           Z
 ---------------------------------------------------------------------
      1          6           0        2.782201   -1.373159    0.260387
      2          8           0        3.178932   -1.076261   -0.829618
      3          7           0        1.567661   -1.041175    0.748361
      4          1           0        1.392226   -1.180415    1.719386
      5          6           0        0.637606   -0.224504   -0.013650
      6          1           0        0.800630   -0.467000   -1.054426
      7          6           0        0.952933    1.258417    0.237373
      8          8           0        0.401525    1.873011    1.105443
      9          1           0       -0.903432   -1.649536    0.433621
     10          1           0       -1.021498   -0.139275    1.356531
     11          6           0       -0.790053   -0.576353    0.397538
     12         16           0       -1.963107    0.087383   -0.843258
     13          6           0       -3.421875   -0.307431   -0.055884
     14          7           0       -4.405295   -0.570987    0.450775
     15          7           0        1.900405    1.770428   -0.570714
     16          1           0        3.378139   -1.958348    0.957839
     17          1           0        2.474609    1.170391   -1.122068
     18          1           0        2.241110    2.682364   -0.358889
 ---------------------------------------------------------------------

 The electronic state is 1-A.
 Alpha  occ. eigenvalues --  -92.00787 -20.56846 -20.54839 -15.63177 -15.59792
 Alpha  occ. eigenvalues --  -15.58678 -11.38404 -11.37141 -11.32050 -11.30206
 Alpha  occ. eigenvalues --  -11.29890  -9.01706  -6.70017  -6.69831  -6.69615
 Alpha  occ. eigenvalues --   -1.43283  -1.41567  -1.28392  -1.24082  -1.23245
 Alpha  occ. eigenvalues --   -1.12219  -1.02848  -0.91522  -0.86655  -0.81699
 Alpha  occ. eigenvalues --   -0.77244  -0.74926  -0.71639  -0.70377  -0.66428
 Alpha  occ. eigenvalues --   -0.64567  -0.63467  -0.61628  -0.58284  -0.57872
 Alpha  occ. eigenvalues --   -0.57359  -0.56135  -0.53137  -0.52060  -0.47201
 Alpha  occ. eigenvalues --   -0.46987  -0.45370  -0.43129  -0.41485  -0.38459
 Alpha virt. eigenvalues --    0.12540   0.15949   0.17425   0.19934   0.20492
 Alpha virt. eigenvalues --    0.21862   0.22732   0.24194   0.24495   0.27101
 Alpha virt. eigenvalues --    0.27838   0.30459   0.31862   0.34866   0.38526

 Mulliken atomic charges:
              1
     1  C    0.518673
     2  O   -0.576106
     3  N   -0.764372
     4  H    0.403332
     5  C   -0.086455
     6  H    0.249930
     7  C    0.763909
     8  O   -0.595216
     9  H    0.235921
    10  H    0.261106
    11  C   -0.503550
    12  S    0.298388
    13  C    0.087254
    14  N   -0.378798
    15  N   -0.921456
    16  H    0.179986
    17  H    0.429022
    18  H    0.398431
 Sum of Mulliken atomic charges =   0.00000

 Dipole moment (field-independent basis, Debye):
    X=              5.0490    Y=             -1.6111    Z=              0.7702  Tot=              5.3555
 Quadrupole moment (field-independent basis, Debye-Ang):
   XX=            -91.1610   YY=            -70.3665   ZZ=            -70.8280
   XY=              0.8253   XZ=             10.3044   YZ=             -9.3255

 Normal termination of Gaussian 09 at Wed Feb 19 12:34:44 2020.
