 Gaussian 09, Revision A.02,
 Gaussian 09:  EM64L-G09RevA.02 11-Jun-2009

 ----------------------------------------------
 #P opt=(,maxcycle=400) HF/6-31G* MaxDisk=100GB
 ----------------------------------------------

 -------------------------------------------------------------------
 ModifiedRes Rotatable Bond Optimization on g2-node38.bme.utexas.edu
 -------------------------------------------------------------------
 Symbolic Z-matrix:
 Charge =  0 Multiplicity = 1

 SCF Done:  E(RHF) =  -903.988727862     A.U. after   16 cycles
 SCF Done:  E(RHF) =  -904.004301739     A.U. after   15 cycles
 SCF Done:  E(RHF) =  -904.006467413     A.U. after   15 cycles
 SCF Done:  E(RHF) =  -904.007327673     A.U. after   16 cycles
 SCF Done:  E(RHF) =  -904.008055097     A.U. after   13 cycles
 SCF Done:  E(RHF) =  -904.008021688     A.U. after   14 cycles
 SCF Done:  E(RHF) =  -904.008279882     A.U. after   13 cycles
 SCF Done:  E(RHF) =  -904.008711104     A.U. after   14 cycles
 SCF Done:  E(RHF) =  -903.986432931     A.U. after   17 cycles
 SCF Done:  E(RHF) =  -903.926929314     A.U. after   20 cycles
 SCF Done:  E(RHF) =  -904.011256275     A.U. after   14 cycles
 SCF Done:  E(RHF) =  -904.011858527     A.U. after   14 cycles
 SCF Done:  E(RHF) =  -904.012215775     A.U. after   14 cycles
 SCF Done:  E(RHF) =  -904.012311926     A.U. after   13 cycles
 SCF Done:  E(RHF) =  -904.012339899     A.U. after   12 cycles
 SCF Done:  E(RHF) =  -904.012357719     A.U. after   12 cycles
 SCF Done:  E(RHF) =  -904.012370472     A.U. after   12 cycles
 SCF Done:  E(RHF) =  -904.012375571     A.U. after   11 cycles
 SCF Done:  E(RHF) =  -904.012376515     A.U. after   10 cycles
 SCF Done:  E(RHF) =  -904.012376768     A.U. after    9 cycles
 Optimization completed.
    -- Stationary point found.

                         Standard orientation:
 ---------------------------------------------------------------------
 Center     Atomic      Atomic             Coordinates (Angstroms)
 Number     Number       Type             X           Y           Z
 ---------------------------------------------------------------------
      1          6           0        2.486793   -1.408595    0.502358
      2          8           0        2.564218   -1.673614   -0.662573
      3          7           0        1.511967   -0.654310    1.052679
      4          1           0        1.620959   -0.358981    1.997831
      5          6           0        0.451093   -0.061054    0.253399
      6          1           0        0.247395   -0.749099   -0.554288
      7          6           0        0.921556    1.287540   -0.311534
      8          8           0        0.625203    2.321543    0.222012
      9          1           0       -1.022079   -0.798469    1.644097
     10          1           0       -0.633657    0.910842    1.837685
     11          6           0       -0.789135    0.117261    1.121048
     12         16           0       -2.261882    0.640761    0.176531
     13          6           0       -2.730246   -0.877249   -0.452854
     14          7           0       -3.052646   -1.880254   -0.881637
     15          7           0        1.692364    1.196968   -1.407205
     16          1           0        3.210206   -1.770424    1.230546
     17          1           0        2.035163    0.316391   -1.724365
     18          1           0        2.114591    2.029882   -1.752875
 ---------------------------------------------------------------------

 The electronic state is 1-A.
 Alpha  occ. eigenvalues --  -92.00865 -20.56457 -20.54496 -15.62796 -15.59431
 Alpha  occ. eigenvalues --  -15.58747 -11.38036 -11.36828 -11.31374 -11.30274
 Alpha  occ. eigenvalues --  -11.29859  -9.01736  -6.70030  -6.69843  -6.69642
 Alpha  occ. eigenvalues --   -1.42890  -1.41177  -1.27996  -1.24171  -1.22911
 Alpha  occ. eigenvalues --   -1.12158  -1.02502  -0.91627  -0.86258  -0.81381
 Alpha  occ. eigenvalues --   -0.77042  -0.75258  -0.70999  -0.69363  -0.67134
 Alpha  occ. eigenvalues --   -0.63759  -0.62944  -0.61648  -0.58418  -0.57544
 Alpha  occ. eigenvalues --   -0.56719  -0.55817  -0.53263  -0.52323  -0.47142
 Alpha  occ. eigenvalues --   -0.46743  -0.45119  -0.42621  -0.41421  -0.38527
 Alpha virt. eigenvalues --    0.13038   0.16243   0.18968   0.19916   0.19981
 Alpha virt. eigenvalues --    0.21904   0.23451   0.23761   0.24125   0.27339
 Alpha virt. eigenvalues --    0.29128   0.30640   0.31370   0.35214   0.37762

 Mulliken atomic charges:
              1
     1  C    0.520999
     2  O   -0.575406
     3  N   -0.768085
     4  H    0.399322
     5  C   -0.066738
     6  H    0.257258
     7  C    0.775404
     8  O   -0.611096
     9  H    0.242442
    10  H    0.251650
    11  C   -0.522302
    12  S    0.311168
    13  C    0.084178
    14  N   -0.382755
    15  N   -0.926918
    16  H    0.177524
    17  H    0.434828
    18  H    0.398529
 Sum of Mulliken atomic charges =   0.00000

 Dipole moment (field-independent basis, Debye):
    X=              3.6604    Y=              0.8491    Z=              3.5277  Tot=              5.1540
 Quadrupole moment (field-independent basis, Debye-Ang):
   XX=            -74.8606   YY=            -86.0689   ZZ=            -63.7302
   XY=             -3.9854   XZ=              0.4448   YZ=            -10.1467

 Normal termination of Gaussian 09 at Wed Feb 19 12:36:56 2020.
