 Gaussian 09, Revision A.02,
 Gaussian 09:  EM64L-G09RevA.02 11-Jun-2009

 ----------------------------------------------------------------------
 #P MP2/6-311++G** SP SCF=(qc,maxcycle=800) Guess=Indo MaxDisk=100GB Po
 p=NBORead
 ----------------------------------------------------------------------

 ---------------------------------------------------------------------
 ModifiedRes Rotatable Bond SP Calculation on g2-node38.bme.utexas.edu
 ---------------------------------------------------------------------
 Symbolic Z-matrix:
 Charge =  0 Multiplicity = 1

                         Standard orientation:
 ---------------------------------------------------------------------
 Center     Atomic      Atomic             Coordinates (Angstroms)
 Number     Number       Type             X           Y           Z
 ---------------------------------------------------------------------
      1          6           0       -1.994880   -1.838100   -0.299755
      2          8           0       -2.820235   -1.670544    0.605309
      3          7           0       -0.950939   -0.985659   -0.513897
      4          1           0       -0.434511   -1.085512   -1.383039
      5          6           0       -0.659621    0.154993    0.375791
      6          1           0       -0.950230   -0.154003    1.390713
      7          6           0       -1.510719    1.371379   -0.055017
      8          8           0       -0.983326    2.306411   -0.661005
      9          1           0        0.999061    1.427652   -0.235109
     10          1           0        1.151746    0.718836    1.401521
     11          6           0        0.853859    0.524933    0.368380
     12         16           0        2.001205   -0.770412   -0.284363
     13          6           0        3.493918   -0.050401    0.098433
     14          7           0        4.524247    0.451380    0.402078
     15          7           0       -2.827040    1.315077    0.279157
     16          1           0       -2.056425   -2.672581   -1.015931
     17          1           0       -3.194923    0.473189    0.715390
     18          1           0       -3.424722    2.089666    0.023482
 ---------------------------------------------------------------------

 SCF Done:  E(RHF) =  -904.152559030     a.u. after   11 cycles
 E2 =    -0.1756369861D+01 EUMP2 =    -0.90590892889023D+03

 The electronic state is 1-A.
 Alpha  occ. eigenvalues --  -92.03044 -20.56718 -20.54841 -15.63985 -15.60544
 Alpha  occ. eigenvalues --  -15.60319 -11.39904 -11.38667 -11.34010 -11.31824
 Alpha  occ. eigenvalues --  -11.31064  -9.03176  -6.71439  -6.71258  -6.71102
 Alpha  occ. eigenvalues --   -1.41900  -1.40340  -1.28042  -1.23164  -1.22895
 Alpha  occ. eigenvalues --   -1.11714  -1.03971  -0.91678  -0.87334  -0.81515
 Alpha  occ. eigenvalues --   -0.76879  -0.75759  -0.71363  -0.70500  -0.67725
 Alpha  occ. eigenvalues --   -0.64230  -0.63496  -0.62117  -0.58842  -0.57773
 Alpha  occ. eigenvalues --   -0.57092  -0.56489  -0.53309  -0.51720  -0.48013
 Alpha  occ. eigenvalues --   -0.47109  -0.45903  -0.43327  -0.42625  -0.39189
 Alpha virt. eigenvalues --    0.02869   0.03992   0.05024   0.05773   0.07112
 Alpha virt. eigenvalues --    0.07654   0.08547   0.08642   0.09570   0.10006
 Alpha virt. eigenvalues --    0.11025   0.11596   0.12004   0.12756   0.13315

 Mulliken atomic charges:
              1
     1  C    0.306482
     2  O   -0.461855
     3  N   -0.149583
     4  H    0.322497
     5  C   -0.262452
     6  H    0.311908
     7  C    0.178012
     8  O   -0.424751
     9  H    0.276010
    10  H    0.178478
    11  C   -0.519384
    12  S    0.309032
    13  C   -0.220638
    14  N   -0.188263
    15  N   -0.499645
    16  H    0.163758
    17  H    0.323714
    18  H    0.356679
 Sum of Mulliken atomic charges =   0.00000

 Dipole moment (field-independent basis, Debye):
    X=             -4.0792    Y=             -2.4118    Z=             -0.9179  Tot=              4.8270
 Quadrupole moment (field-independent basis, Debye-Ang):
   XX=            -94.4044   YY=            -77.6073   ZZ=            -70.5256
   XY=             -8.0478   XZ=              0.8567   YZ=              9.4582

 Normal termination of Gaussian 09 at Wed Feb 19 12:39:02 2020.
