 Gaussian 09, Revision A.02,
 Gaussian 09:  EM64L-G09RevA.02 11-Jun-2009

 ----------------------------------------------------------------------
 #P MP2/6-311++G** SP SCF=(qc,maxcycle=800) Guess=Indo MaxDisk=100GB Po
 p=NBORead
 ----------------------------------------------------------------------

 ---------------------------------------------------------------------
 ModifiedRes Rotatable Bond SP Calculation on g2-node38.bme.utexas.edu
 ---------------------------------------------------------------------
 Symbolic Z-matrix:
 Charge =  0 Multiplicity = 1

                         Standard orientation:
 ---------------------------------------------------------------------
 Center     Atomic      Atomic             Coordinates (Angstroms)
 Number     Number       Type             X           Y           Z
 ---------------------------------------------------------------------
      1          6           0       -0.638241    1.932519    0.898645
      2          8           0       -1.155132    2.406882   -0.120301
      3          7           0       -0.337626    0.606986    1.020604
      4          1           0       -0.055374    0.256104    1.930921
      5          6           0       -0.433631   -0.325740   -0.117673
      6          1           0       -0.187981    0.238815   -1.029311
      7          6           0       -1.877936   -0.852628   -0.235023
      8          8           0       -2.142006   -1.986400    0.171537
      9          1           0        0.297230   -2.059472    0.956760
     10          1           0        0.383539   -2.169084   -0.820573
     11          6           0        0.545540   -1.517521    0.040253
     12         16           0        2.332781   -1.058005    0.173203
     13          6           0        2.407995    0.512722   -0.481833
     14          7           0        2.428715    1.618851   -0.906617
     15          7           0       -2.773471    0.002736   -0.793837
     16          1           0       -0.414791    2.536812    1.791505
     17          1           0       -2.481019    0.958876   -0.982917
     18          1           0       -3.734687   -0.293960   -0.894780
 ---------------------------------------------------------------------

 SCF Done:  E(RHF) =  -904.157166381     a.u. after   12 cycles
 E2 =    -0.1759716733D+01 EUMP2 =    -0.90591688311388D+03

 The electronic state is 1-A.
 Alpha  occ. eigenvalues --  -92.03068 -20.55442 -20.54193 -15.62834 -15.60354
 Alpha  occ. eigenvalues --  -15.59831 -11.38716 -11.37995 -11.33059 -11.31960
 Alpha  occ. eigenvalues --  -11.31713  -9.03181  -6.71443  -6.71249  -6.71108
 Alpha  occ. eigenvalues --   -1.40705  -1.39597  -1.26962  -1.23103  -1.22508
 Alpha  occ. eigenvalues --   -1.11783  -1.03175  -0.92068  -0.86403  -0.80741
 Alpha  occ. eigenvalues --   -0.76322  -0.74935  -0.70502  -0.70024  -0.66882
 Alpha  occ. eigenvalues --   -0.63691  -0.62835  -0.61431  -0.58687  -0.57873
 Alpha  occ. eigenvalues --   -0.56442  -0.55357  -0.53746  -0.52486  -0.46849
 Alpha  occ. eigenvalues --   -0.46251  -0.45748  -0.42748  -0.41649  -0.39408
 Alpha virt. eigenvalues --    0.03127   0.04440   0.04827   0.05982   0.07067
 Alpha virt. eigenvalues --    0.07531   0.08465   0.09417   0.10212   0.10564
 Alpha virt. eigenvalues --    0.10680   0.12104   0.12518   0.12959   0.13230

 Mulliken atomic charges:
              1
     1  C    0.220134
     2  O   -0.451882
     3  N   -0.202824
     4  H    0.366466
     5  C   -0.201289
     6  H    0.254950
     7  C    0.319807
     8  O   -0.414182
     9  H    0.248379
    10  H    0.251999
    11  C   -0.555288
    12  S   -0.023805
    13  C    0.042158
    14  N   -0.195855
    15  N   -0.507262
    16  H    0.155090
    17  H    0.323104
    18  H    0.370299
 Sum of Mulliken atomic charges =   0.00000

 Dipole moment (field-independent basis, Debye):
    X=             -0.5283    Y=             -1.7033    Z=              2.5428  Tot=              3.1058
 Quadrupole moment (field-independent basis, Debye-Ang):
   XX=            -76.0875   YY=            -86.5030   ZZ=            -66.2828
   XY=            -10.4895   XZ=              5.9766   YZ=              8.2860

 Normal termination of Gaussian 09 at Wed Feb 19 13:05:49 2020.
