 Gaussian 09, Revision A.02,
 Gaussian 09:  EM64L-G09RevA.02 11-Jun-2009

 ----------------------------------------------
 #P opt=(,maxcycle=400) HF/6-31G* MaxDisk=100GB
 ----------------------------------------------

 -------------------------------------------------------------------
 ModifiedRes Rotatable Bond Optimization on g2-node38.bme.utexas.edu
 -------------------------------------------------------------------
 Symbolic Z-matrix:
 Charge =  0 Multiplicity = 1

 SCF Done:  E(RHF) =  -903.984059792     A.U. after   16 cycles
 SCF Done:  E(RHF) =  -903.999178241     A.U. after   14 cycles
 SCF Done:  E(RHF) =  -904.001111277     A.U. after   16 cycles
 SCF Done:  E(RHF) =  -904.002920589     A.U. after   16 cycles
 SCF Done:  E(RHF) =  -904.005062179     A.U. after   14 cycles
 SCF Done:  E(RHF) =  -904.008908455     A.U. after   17 cycles
 SCF Done:  E(RHF) =  -904.010223743     A.U. after   14 cycles
 SCF Done:  E(RHF) =  -904.011161912     A.U. after   14 cycles
 SCF Done:  E(RHF) =  -904.011085777     A.U. after   13 cycles
 SCF Done:  E(RHF) =  -904.011317975     A.U. after   13 cycles
 SCF Done:  E(RHF) =  -904.011439784     A.U. after   13 cycles
 SCF Done:  E(RHF) =  -904.011462250     A.U. after   12 cycles
 SCF Done:  E(RHF) =  -904.011476592     A.U. after   12 cycles
 SCF Done:  E(RHF) =  -904.011478907     A.U. after   12 cycles
 SCF Done:  E(RHF) =  -904.011481020     A.U. after   11 cycles
 SCF Done:  E(RHF) =  -904.011481328     A.U. after   10 cycles
 Optimization completed.
    -- Stationary point found.

                         Standard orientation:
 ---------------------------------------------------------------------
 Center     Atomic      Atomic             Coordinates (Angstroms)
 Number     Number       Type             X           Y           Z
 ---------------------------------------------------------------------
      1          6           0        1.915615   -1.808369    0.475158
      2          8           0        2.539618   -1.848340   -0.546719
      3          7           0        0.972039   -0.886602    0.757507
      4          1           0        0.595560   -0.860439    1.679688
      5          6           0        0.605048    0.165284   -0.176547
      6          1           0        0.716684   -0.245477   -1.170620
      7          6           0        1.544349    1.373744   -0.029206
      8          8           0        1.192737    2.375407    0.527527
      9          1           0       -0.966677    1.029037    1.030417
     10          1           0       -1.092492    1.371884   -0.679458
     11          6           0       -0.834694    0.614018    0.043387
     12         16           0       -1.956583   -0.821292   -0.177402
     13          6           0       -3.448530    0.002366   -0.102250
     14          7           0       -4.455913    0.527643   -0.053524
     15          7           0        2.761603    1.197173   -0.571224
     16          1           0        2.059650   -2.532781    1.273868
     17          1           0        3.053317    0.306759   -0.911827
     18          1           0        3.445606    1.905395   -0.422659
 ---------------------------------------------------------------------

 The electronic state is 1-A.
 Alpha  occ. eigenvalues --  -92.01092 -20.56945 -20.54879 -15.63318 -15.59693
 Alpha  occ. eigenvalues --  -15.58909 -11.38515 -11.37294 -11.32194 -11.30403
 Alpha  occ. eigenvalues --  -11.30073  -9.02000  -6.70309  -6.70119  -6.69915
 Alpha  occ. eigenvalues --   -1.43378  -1.41618  -1.28587  -1.24300  -1.23200
 Alpha  occ. eigenvalues --   -1.12247  -1.03306  -0.91357  -0.87054  -0.81767
 Alpha  occ. eigenvalues --   -0.76975  -0.75838  -0.71465  -0.69975  -0.67178
 Alpha  occ. eigenvalues --   -0.64517  -0.62833  -0.62094  -0.58995  -0.58393
 Alpha  occ. eigenvalues --   -0.57111  -0.56110  -0.53409  -0.52339  -0.47400
 Alpha  occ. eigenvalues --   -0.46510  -0.46146  -0.42881  -0.41762  -0.38698
 Alpha virt. eigenvalues --    0.12891   0.15871   0.17627   0.19440   0.20874
 Alpha virt. eigenvalues --    0.21180   0.22432   0.23470   0.24299   0.27396
 Alpha virt. eigenvalues --    0.28396   0.29669   0.32297   0.34509   0.37785

 Mulliken atomic charges:
              1
     1  C    0.521769
     2  O   -0.579124
     3  N   -0.768372
     4  H    0.406919
     5  C   -0.100256
     6  H    0.253905
     7  C    0.775203
     8  O   -0.596677
     9  H    0.246209
    10  H    0.252319
    11  C   -0.492948
    12  S    0.286028
    13  C    0.084626
    14  N   -0.376520
    15  N   -0.933945
    16  H    0.182730
    17  H    0.438846
    18  H    0.399288
 Sum of Mulliken atomic charges =   0.00000

 Dipole moment (field-independent basis, Debye):
    X=              4.1237    Y=             -2.0498    Z=              1.5039  Tot=              4.8445
 Quadrupole moment (field-independent basis, Debye-Ang):
   XX=            -89.2727   YY=            -79.2284   ZZ=            -67.6029
   XY=              6.4281   XZ=              2.5796   YZ=             -8.6457

 Normal termination of Gaussian 09 at Wed Feb 19 12:32:01 2020.
