 Gaussian 09, Revision A.02,
 Gaussian 09:  EM64L-G09RevA.02 11-Jun-2009

 ----------------------------------------------
 #P opt=(,maxcycle=400) HF/6-31G* MaxDisk=100GB
 ----------------------------------------------

 -------------------------------------------------------------------
 ModifiedRes Rotatable Bond Optimization on g2-node38.bme.utexas.edu
 -------------------------------------------------------------------
 Symbolic Z-matrix:
 Charge =  0 Multiplicity = 1

 SCF Done:  E(RHF) =  -903.992450563     A.U. after   16 cycles
 SCF Done:  E(RHF) =  -904.007103787     A.U. after   14 cycles
 SCF Done:  E(RHF) =  -904.008439019     A.U. after   17 cycles
 SCF Done:  E(RHF) =  -904.008381840     A.U. after   17 cycles
 SCF Done:  E(RHF) =  -904.009509175     A.U. after   14 cycles
 SCF Done:  E(RHF) =  -904.010089256     A.U. after   17 cycles
 SCF Done:  E(RHF) =  -904.010323553     A.U. after   13 cycles
 SCF Done:  E(RHF) =  -904.010479159     A.U. after   14 cycles
 SCF Done:  E(RHF) =  -904.011164338     A.U. after   13 cycles
 SCF Done:  E(RHF) =  -904.011351037     A.U. after   14 cycles
 SCF Done:  E(RHF) =  -904.011457531     A.U. after   13 cycles
 SCF Done:  E(RHF) =  -904.011475024     A.U. after   12 cycles
 SCF Done:  E(RHF) =  -904.011478185     A.U. after   12 cycles
 SCF Done:  E(RHF) =  -904.011480337     A.U. after   11 cycles
 SCF Done:  E(RHF) =  -904.011480953     A.U. after   10 cycles
 SCF Done:  E(RHF) =  -904.011481413     A.U. after   10 cycles
 SCF Done:  E(RHF) =  -904.011481514     A.U. after    9 cycles
 SCF Done:  E(RHF) =  -904.011481523     A.U. after    8 cycles
 Optimization completed.
    -- Stationary point found.

                         Standard orientation:
 ---------------------------------------------------------------------
 Center     Atomic      Atomic             Coordinates (Angstroms)
 Number     Number       Type             X           Y           Z
 ---------------------------------------------------------------------
      1          6           0        1.915506   -1.808607    0.474533
      2          8           0        2.538964   -1.848738   -0.547673
      3          7           0        0.972401   -0.886565    0.757490
      4          1           0        0.596450   -0.860423    1.679884
      5          6           0        0.605130    0.165525   -0.176200
      6          1           0        0.716580   -0.245112   -1.170356
      7          6           0        1.544295    1.374208   -0.029470
      8          8           0        1.191212    2.377566    0.523309
      9          1           0       -0.966718    1.028508    1.031281
     10          1           0       -1.092661    1.372152   -0.678364
     11          6           0       -0.834698    0.613970    0.044055
     12         16           0       -1.956434   -0.821363   -0.177304
     13          6           0       -3.448523    0.002045   -0.102051
     14          7           0       -4.455977    0.527183   -0.053285
     15          7           0        2.763148    1.195825   -0.566965
     16          1           0        2.059699   -2.533157    1.273092
     17          1           0        3.054719    0.305782   -0.908548
     18          1           0        3.446209    1.905472   -0.421089
 ---------------------------------------------------------------------

 The electronic state is 1-A.
 Alpha  occ. eigenvalues --  -92.01090 -20.56944 -20.54873 -15.63317 -15.59693
 Alpha  occ. eigenvalues --  -15.58907 -11.38515 -11.37293 -11.32194 -11.30401
 Alpha  occ. eigenvalues --  -11.30072  -9.01998  -6.70307  -6.70117  -6.69913
 Alpha  occ. eigenvalues --   -1.43378  -1.41614  -1.28588  -1.24299  -1.23198
 Alpha  occ. eigenvalues --   -1.12245  -1.03304  -0.91357  -0.87053  -0.81771
 Alpha  occ. eigenvalues --   -0.76977  -0.75843  -0.71458  -0.69982  -0.67175
 Alpha  occ. eigenvalues --   -0.64517  -0.62830  -0.62085  -0.58995  -0.58407
 Alpha  occ. eigenvalues --   -0.57100  -0.56108  -0.53406  -0.52338  -0.47402
 Alpha  occ. eigenvalues --   -0.46509  -0.46143  -0.42869  -0.41764  -0.38696
 Alpha virt. eigenvalues --    0.12893   0.15867   0.17635   0.19444   0.20874
 Alpha virt. eigenvalues --    0.21182   0.22430   0.23472   0.24298   0.27396
 Alpha virt. eigenvalues --    0.28398   0.29670   0.32296   0.34511   0.37791

 Mulliken atomic charges:
              1
     1  C    0.521816
     2  O   -0.579174
     3  N   -0.768345
     4  H    0.406889
     5  C   -0.100364
     6  H    0.253906
     7  C    0.775441
     8  O   -0.596785
     9  H    0.246068
    10  H    0.252402
    11  C   -0.492789
    12  S    0.286000
    13  C    0.084630
    14  N   -0.376529
    15  N   -0.934288
    16  H    0.182736
    17  H    0.438977
    18  H    0.399408
 Sum of Mulliken atomic charges =   0.00000

 Dipole moment (field-independent basis, Debye):
    X=              4.1285    Y=             -2.0495    Z=              1.5068  Tot=              4.8492
 Quadrupole moment (field-independent basis, Debye-Ang):
   XX=            -89.2654   YY=            -79.2428   ZZ=            -67.5854
   XY=              6.4361   XZ=              2.5771   YZ=             -8.6406

 Normal termination of Gaussian 09 at Wed Feb 19 12:44:38 2020.
