 Gaussian 09, Revision A.02,
 Gaussian 09:  EM64L-G09RevA.02 11-Jun-2009

 ----------------------------------------------------------------------
 #P MP2/6-311++G** SP SCF=(qc,maxcycle=800) Guess=Indo MaxDisk=100GB Po
 p=NBORead
 ----------------------------------------------------------------------

 ---------------------------------------------------------------------
 ModifiedRes Rotatable Bond SP Calculation on g2-node38.bme.utexas.edu
 ---------------------------------------------------------------------
 Symbolic Z-matrix:
 Charge =  0 Multiplicity = 1

                         Standard orientation:
 ---------------------------------------------------------------------
 Center     Atomic      Atomic             Coordinates (Angstroms)
 Number     Number       Type             X           Y           Z
 ---------------------------------------------------------------------
      1          6           0        1.979190   -1.903094    0.250603
      2          8           0        2.545538   -1.905296   -0.841311
      3          7           0        1.046185   -0.971433    0.606344
      4          1           0        0.705870   -0.994842    1.563871
      5          6           0        0.626212    0.151123   -0.255894
      6          1           0        0.695885   -0.215042   -1.289703
      7          6           0        1.570117    1.371112   -0.099928
      8          8           0        1.530802    2.244224   -0.966070
      9          1           0       -0.882714    0.951007    1.096363
     10          1           0       -1.098257    1.392413   -0.611748
     11          6           0       -0.810606    0.585773    0.069172
     12         16           0       -1.994278   -0.814900   -0.154537
     13          6           0       -3.456115    0.029898    0.048921
     14          7           0       -4.487352    0.596953    0.188345
     15          7           0        2.399952    1.445608    0.978184
     16          1           0        2.187345   -2.654769    1.028959
     17          1           0        2.521607    0.685206    1.633979
     18          1           0        3.003726    2.256238    1.022571
 ---------------------------------------------------------------------

 SCF Done:  E(RHF) =  -904.154614164     a.u. after   12 cycles
 E2 =    -0.1755752973D+01 EUMP2 =    -0.90591036713666D+03

 The electronic state is 1-A.
 Alpha  occ. eigenvalues --  -92.03450 -20.55971 -20.54735 -15.63626 -15.61891
 Alpha  occ. eigenvalues --  -15.60555 -11.39171 -11.39085 -11.34040 -11.32447
 Alpha  occ. eigenvalues --  -11.32036  -9.03573  -6.71825  -6.71647  -6.71488
 Alpha  occ. eigenvalues --   -1.41297  -1.40434  -1.28227  -1.23602  -1.23201
 Alpha  occ. eigenvalues --   -1.12827  -1.04168  -0.92055  -0.86847  -0.82859
 Alpha  occ. eigenvalues --   -0.78132  -0.75748  -0.71792  -0.70085  -0.66781
 Alpha  occ. eigenvalues --   -0.64067  -0.63220  -0.62762  -0.60195  -0.58663
 Alpha  occ. eigenvalues --   -0.57196  -0.55949  -0.53989  -0.52399  -0.47790
 Alpha  occ. eigenvalues --   -0.46495  -0.46279  -0.43943  -0.42357  -0.39655
 Alpha virt. eigenvalues --    0.01534   0.03921   0.04570   0.05687   0.06873
 Alpha virt. eigenvalues --    0.07147   0.07643   0.08502   0.09711   0.09973
 Alpha virt. eigenvalues --    0.11282   0.11696   0.12558   0.12848   0.13341

 Mulliken atomic charges:
              1
     1  C    0.243364
     2  O   -0.398708
     3  N   -0.179472
     4  H    0.330730
     5  C   -0.736127
     6  H    0.294297
     7  C    0.212428
     8  O   -0.375998
     9  H    0.208036
    10  H    0.236293
    11  C   -0.033644
    12  S    0.212163
    13  C   -0.125551
    14  N   -0.200954
    15  N   -0.471116
    16  H    0.143983
    17  H    0.268100
    18  H    0.372177
 Sum of Mulliken atomic charges =   0.00000

 Dipole moment (field-independent basis, Debye):
    X=              3.0511    Y=             -1.7354    Z=              6.0402  Tot=              6.9861
 Quadrupole moment (field-independent basis, Debye-Ang):
   XX=            -96.7008   YY=            -78.2488   ZZ=            -70.4261
   XY=              6.6533   XZ=             16.0876   YZ=             -0.4294

 Normal termination of Gaussian 09 at Wed Feb 19 12:54:22 2020.
