 Gaussian 09, Revision A.02,
 Gaussian 09:  EM64L-G09RevA.02 11-Jun-2009

 ----------------------------------------------------------------------
 #P MP2/6-311++G** SP SCF=(qc,maxcycle=800) Guess=Indo MaxDisk=100GB Po
 p=NBORead
 ----------------------------------------------------------------------

 ---------------------------------------------------------------------
 ModifiedRes Rotatable Bond SP Calculation on g2-node38.bme.utexas.edu
 ---------------------------------------------------------------------
 Symbolic Z-matrix:
 Charge =  0 Multiplicity = 1

                         Standard orientation:
 ---------------------------------------------------------------------
 Center     Atomic      Atomic             Coordinates (Angstroms)
 Number     Number       Type             X           Y           Z
 ---------------------------------------------------------------------
      1          6           0       -2.074209   -1.816463   -0.256746
      2          8           0       -2.941539   -1.579715    0.592010
      3          7           0       -0.974199   -1.027015   -0.430148
      4          1           0       -0.419839   -1.186088   -1.265215
      5          6           0       -0.676724    0.122211    0.449002
      6          1           0       -1.043963   -0.146274    1.450739
      7          6           0       -1.436944    1.366589   -0.064859
      8          8           0       -0.826585    2.256353   -0.660743
      9          1           0        1.030789    1.457134    0.217365
     10          1           0        1.155625    0.290011    1.573535
     11          6           0        0.855662    0.422221    0.530909
     12         16           0        1.981661   -0.641133   -0.477283
     13          6           0        3.486364   -0.099888    0.101826
     14          7           0        4.524960    0.266053    0.541169
     15          7           0       -2.772022    1.385466    0.189136
     16          1           0       -2.140183   -2.666259   -0.954381
     17          1           0       -3.207033    0.576196    0.625346
     18          1           0       -3.313046    2.180750   -0.122889
 ---------------------------------------------------------------------

 SCF Done:  E(RHF) =  -904.148864499     a.u. after   11 cycles
 E2 =    -0.1756777387D+01 EUMP2 =    -0.90590564188567D+03

 The electronic state is 1-A.
 Alpha  occ. eigenvalues --  -92.03063 -20.56705 -20.54731 -15.64010 -15.60467
 Alpha  occ. eigenvalues --  -15.60371 -11.39886 -11.38513 -11.34119 -11.31924
 Alpha  occ. eigenvalues --  -11.31089  -9.03205  -6.71473  -6.71293  -6.71134
 Alpha  occ. eigenvalues --   -1.41880  -1.40257  -1.27996  -1.23100  -1.22935
 Alpha  occ. eigenvalues --   -1.11668  -1.03993  -0.91703  -0.87273  -0.81530
 Alpha  occ. eigenvalues --   -0.76904  -0.75661  -0.71178  -0.70588  -0.67592
 Alpha  occ. eigenvalues --   -0.64309  -0.63741  -0.61809  -0.58809  -0.57708
 Alpha  occ. eigenvalues --   -0.57210  -0.56463  -0.53330  -0.51758  -0.47942
 Alpha  occ. eigenvalues --   -0.47121  -0.45898  -0.43269  -0.42620  -0.39077
 Alpha virt. eigenvalues --    0.02880   0.03945   0.04903   0.05824   0.07290
 Alpha virt. eigenvalues --    0.07643   0.08424   0.08699   0.09674   0.09890
 Alpha virt. eigenvalues --    0.10980   0.11487   0.12233   0.12645   0.13314

 Mulliken atomic charges:
              1
     1  C    0.319621
     2  O   -0.461719
     3  N   -0.151916
     4  H    0.318999
     5  C   -0.237822
     6  H    0.322466
     7  C    0.124926
     8  O   -0.418186
     9  H    0.285154
    10  H    0.176819
    11  C   -0.473547
    12  S    0.152634
    13  C   -0.109418
    14  N   -0.201744
    15  N   -0.486660
    16  H    0.164518
    17  H    0.322922
    18  H    0.352953
 Sum of Mulliken atomic charges =   0.00000

 Dipole moment (field-independent basis, Debye):
    X=             -4.1097    Y=             -2.3516    Z=             -0.7772  Tot=              4.7983
 Quadrupole moment (field-independent basis, Debye-Ang):
   XX=            -95.3247   YY=            -76.0329   ZZ=            -70.7872
   XY=             -7.4990   XZ=              0.5412   YZ=              8.9788

 Normal termination of Gaussian 09 at Wed Feb 19 12:42:39 2020.
