 Gaussian 09, Revision A.02,
 Gaussian 09:  EM64L-G09RevA.02 11-Jun-2009

 ----------------------------------------------
 #P opt=(,maxcycle=400) HF/6-31G* MaxDisk=100GB
 ----------------------------------------------

 -------------------------------------------------------------------
 ModifiedRes Rotatable Bond Optimization on g2-node38.bme.utexas.edu
 -------------------------------------------------------------------
 Symbolic Z-matrix:
 Charge =  0 Multiplicity = 1

 SCF Done:  E(RHF) =  -903.990524239     A.U. after   16 cycles
 SCF Done:  E(RHF) =  -904.004245210     A.U. after   14 cycles
 SCF Done:  E(RHF) =  -904.004371961     A.U. after   14 cycles
 SCF Done:  E(RHF) =  -904.005781560     A.U. after   13 cycles
 SCF Done:  E(RHF) =  -904.007037787     A.U. after   14 cycles
 SCF Done:  E(RHF) =  -904.009019557     A.U. after   15 cycles
 SCF Done:  E(RHF) =  -904.009283240     A.U. after   14 cycles
 SCF Done:  E(RHF) =  -904.010406652     A.U. after   14 cycles
 SCF Done:  E(RHF) =  -904.011248039     A.U. after   14 cycles
 SCF Done:  E(RHF) =  -904.011397224     A.U. after   14 cycles
 SCF Done:  E(RHF) =  -904.011448286     A.U. after   13 cycles
 SCF Done:  E(RHF) =  -904.011467558     A.U. after   12 cycles
 SCF Done:  E(RHF) =  -904.011477416     A.U. after   11 cycles
 SCF Done:  E(RHF) =  -904.011479940     A.U. after   10 cycles
 SCF Done:  E(RHF) =  -904.011481214     A.U. after   11 cycles
 SCF Done:  E(RHF) =  -904.011481423     A.U. after   10 cycles
 SCF Done:  E(RHF) =  -904.011481512     A.U. after    9 cycles
 Optimization completed.
    -- Stationary point found.

                         Standard orientation:
 ---------------------------------------------------------------------
 Center     Atomic      Atomic             Coordinates (Angstroms)
 Number     Number       Type             X           Y           Z
 ---------------------------------------------------------------------
      1          6           0        1.915466   -1.808684    0.474339
      2          8           0        2.538818   -1.848879   -0.547941
      3          7           0        0.972456   -0.886581    0.757416
      4          1           0        0.596706   -0.860360    1.679897
      5          6           0        0.605119    0.165602   -0.176157
      6          1           0        0.716449   -0.244966   -1.170366
      7          6           0        1.544250    1.374321   -0.029511
      8          8           0        1.190963    2.377918    0.522719
      9          1           0       -0.966609    1.028509    1.031548
     10          1           0       -1.092751    1.372186   -0.678070
     11          6           0       -0.834676    0.613987    0.044296
     12         16           0       -1.956359   -0.821391   -0.177016
     13          6           0       -3.448422    0.002098   -0.102122
     14          7           0       -4.456013    0.527015   -0.053621
     15          7           0        2.763331    1.195675   -0.566378
     16          1           0        2.059690   -2.533260    1.272871
     17          1           0        3.054879    0.305638   -0.908002
     18          1           0        3.446298    1.905477   -0.420819
 ---------------------------------------------------------------------

 The electronic state is 1-A.
 Alpha  occ. eigenvalues --  -92.01090 -20.56944 -20.54873 -15.63318 -15.59693
 Alpha  occ. eigenvalues --  -15.58907 -11.38515 -11.37293 -11.32194 -11.30400
 Alpha  occ. eigenvalues --  -11.30071  -9.01998  -6.70307  -6.70117  -6.69913
 Alpha  occ. eigenvalues --   -1.43377  -1.41614  -1.28588  -1.24298  -1.23198
 Alpha  occ. eigenvalues --   -1.12245  -1.03304  -0.91356  -0.87053  -0.81772
 Alpha  occ. eigenvalues --   -0.76978  -0.75844  -0.71457  -0.69984  -0.67175
 Alpha  occ. eigenvalues --   -0.64517  -0.62829  -0.62084  -0.58995  -0.58409
 Alpha  occ. eigenvalues --   -0.57098  -0.56107  -0.53406  -0.52337  -0.47403
 Alpha  occ. eigenvalues --   -0.46508  -0.46142  -0.42868  -0.41764  -0.38696
 Alpha virt. eigenvalues --    0.12893   0.15865   0.17637   0.19443   0.20876
 Alpha virt. eigenvalues --    0.21184   0.22428   0.23471   0.24298   0.27395
 Alpha virt. eigenvalues --    0.28398   0.29670   0.32295   0.34512   0.37792

 Mulliken atomic charges:
              1
     1  C    0.521822
     2  O   -0.579179
     3  N   -0.768353
     4  H    0.406884
     5  C   -0.100378
     6  H    0.253915
     7  C    0.775472
     8  O   -0.596797
     9  H    0.246049
    10  H    0.252414
    11  C   -0.492779
    12  S    0.286017
    13  C    0.084633
    14  N   -0.376541
    15  N   -0.934335
    16  H    0.182739
    17  H    0.438991
    18  H    0.399424
 Sum of Mulliken atomic charges =   0.00000

 Dipole moment (field-independent basis, Debye):
    X=              4.1296    Y=             -2.0491    Z=              1.5082  Tot=              4.8505
 Quadrupole moment (field-independent basis, Debye-Ang):
   XX=            -89.2653   YY=            -79.2453   ZZ=            -67.5839
   XY=              6.4363   XZ=              2.5763   YZ=             -8.6391

 Normal termination of Gaussian 09 at Wed Feb 19 12:35:18 2020.
