 Gaussian 09, Revision A.02,
 Gaussian 09:  EM64L-G09RevA.02 11-Jun-2009

 ----------------------------------------------
 #P opt=(,maxcycle=400) HF/6-31G* MaxDisk=100GB
 ----------------------------------------------

 -------------------------------------------------------------------
 ModifiedRes Rotatable Bond Optimization on g2-node38.bme.utexas.edu
 -------------------------------------------------------------------
 Symbolic Z-matrix:
 Charge =  0 Multiplicity = 1

 SCF Done:  E(RHF) =  -903.987761247     A.U. after   16 cycles
 SCF Done:  E(RHF) =  -904.003761225     A.U. after   14 cycles
 SCF Done:  E(RHF) =  -904.006480426     A.U. after   17 cycles
 SCF Done:  E(RHF) =  -904.008934870     A.U. after   16 cycles
 SCF Done:  E(RHF) =  -904.010921072     A.U. after   15 cycles
 SCF Done:  E(RHF) =  -904.011221988     A.U. after   14 cycles
 SCF Done:  E(RHF) =  -904.011101567     A.U. after   13 cycles
 SCF Done:  E(RHF) =  -904.011449300     A.U. after   13 cycles
 SCF Done:  E(RHF) =  -904.011462991     A.U. after   12 cycles
 SCF Done:  E(RHF) =  -904.011474042     A.U. after   11 cycles
 SCF Done:  E(RHF) =  -904.011478948     A.U. after   12 cycles
 SCF Done:  E(RHF) =  -904.011480740     A.U. after   11 cycles
 SCF Done:  E(RHF) =  -904.011481380     A.U. after   10 cycles
 SCF Done:  E(RHF) =  -904.011481480     A.U. after    9 cycles
 Optimization completed.
    -- Stationary point found.

                         Standard orientation:
 ---------------------------------------------------------------------
 Center     Atomic      Atomic             Coordinates (Angstroms)
 Number     Number       Type             X           Y           Z
 ---------------------------------------------------------------------
      1          6           0        1.915355   -1.808628    0.474805
      2          8           0        2.539008   -1.848721   -0.547281
      3          7           0        0.972227   -0.886521    0.757553
      4          1           0        0.596043   -0.860397    1.679856
      5          6           0        0.605129    0.165447   -0.176346
      6          1           0        0.716634   -0.245366   -1.170420
      7          6           0        1.544462    1.373978   -0.029370
      8          8           0        1.192137    2.376645    0.525116
      9          1           0       -0.966716    1.028808    1.030780
     10          1           0       -1.092516    1.372061   -0.678986
     11          6           0       -0.834681    0.614037    0.043659
     12         16           0       -1.956555   -0.821264   -0.177336
     13          6           0       -3.448571    0.002251   -0.102106
     14          7           0       -4.455959    0.527503   -0.053363
     15          7           0        2.762631    1.196307   -0.568786
     16          1           0        2.059459   -2.533100    1.273435
     17          1           0        3.054154    0.306038   -0.909871
     18          1           0        3.446190    1.905257   -0.421770
 ---------------------------------------------------------------------

 The electronic state is 1-A.
 Alpha  occ. eigenvalues --  -92.01091 -20.56944 -20.54875 -15.63317 -15.59692
 Alpha  occ. eigenvalues --  -15.58908 -11.38515 -11.37293 -11.32195 -11.30402
 Alpha  occ. eigenvalues --  -11.30072  -9.01999  -6.70308  -6.70118  -6.69914
 Alpha  occ. eigenvalues --   -1.43378  -1.41616  -1.28587  -1.24300  -1.23198
 Alpha  occ. eigenvalues --   -1.12245  -1.03305  -0.91358  -0.87052  -0.81769
 Alpha  occ. eigenvalues --   -0.76976  -0.75840  -0.71461  -0.69979  -0.67176
 Alpha  occ. eigenvalues --   -0.64517  -0.62832  -0.62089  -0.58995  -0.58401
 Alpha  occ. eigenvalues --   -0.57105  -0.56109  -0.53407  -0.52339  -0.47401
 Alpha  occ. eigenvalues --   -0.46509  -0.46144  -0.42874  -0.41763  -0.38697
 Alpha virt. eigenvalues --    0.12892   0.15868   0.17632   0.19443   0.20873
 Alpha virt. eigenvalues --    0.21181   0.22431   0.23471   0.24299   0.27397
 Alpha virt. eigenvalues --    0.28397   0.29669   0.32296   0.34510   0.37788

 Mulliken atomic charges:
              1
     1  C    0.521790
     2  O   -0.579149
     3  N   -0.768365
     4  H    0.406900
     5  C   -0.100315
     6  H    0.253908
     7  C    0.775335
     8  O   -0.596733
     9  H    0.246123
    10  H    0.252363
    11  C   -0.492848
    12  S    0.286000
    13  C    0.084631
    14  N   -0.376517
    15  N   -0.934134
    16  H    0.182740
    17  H    0.438908
    18  H    0.399362
 Sum of Mulliken atomic charges =   0.00000

 Dipole moment (field-independent basis, Debye):
    X=              4.1260    Y=             -2.0501    Z=              1.5056  Tot=              4.8470
 Quadrupole moment (field-independent basis, Debye-Ang):
   XX=            -89.2668   YY=            -79.2374   ZZ=            -67.5933
   XY=              6.4316   XZ=              2.5780   YZ=             -8.6435

 Normal termination of Gaussian 09 at Wed Feb 19 12:39:34 2020.
