 Gaussian 09, Revision A.02,
 Gaussian 09:  EM64L-G09RevA.02 11-Jun-2009

 ----------------------------------------------------------------------
 #P MP2/6-311++G** SP SCF=(qc,maxcycle=800) Guess=Indo MaxDisk=100GB Po
 p=NBORead
 ----------------------------------------------------------------------

 ---------------------------------------------------------------------
 ModifiedRes Rotatable Bond SP Calculation on g2-node38.bme.utexas.edu
 ---------------------------------------------------------------------
 Symbolic Z-matrix:
 Charge =  0 Multiplicity = 1

                         Standard orientation:
 ---------------------------------------------------------------------
 Center     Atomic      Atomic             Coordinates (Angstroms)
 Number     Number       Type             X           Y           Z
 ---------------------------------------------------------------------
      1          6           0        2.050770   -1.788607    0.527369
      2          8           0        2.657640   -1.765939   -0.549268
      3          7           0        1.077803   -0.885266    0.840143
      4          1           0        0.749132   -0.847799    1.800697
      5          6           0        0.606785    0.134946   -0.112001
      6          1           0        0.674252   -0.310761   -1.115112
      7          6           0        1.517527    1.379031   -0.051873
      8          8           0        1.119785    2.396565    0.517375
      9          1           0       -0.992072    0.728214    1.249054
     10          1           0       -1.106152    1.429551   -0.372142
     11          6           0       -0.855635    0.524281    0.185434
     12         16           0       -2.002009   -0.825999   -0.334673
     13          6           0       -3.489817   -0.034493   -0.099383
     14          7           0       -4.539709    0.494015    0.056111
     15          7           0        2.730054    1.250040   -0.652343
     16          1           0        2.268888   -2.520508    1.320656
     17          1           0        3.004803    0.348032   -1.033716
     18          1           0        3.359076    2.041772   -0.644180
 ---------------------------------------------------------------------

 SCF Done:  E(RHF) =  -904.161513650     a.u. after   11 cycles
 E2 =    -0.1755377760D+01 EUMP2 =    -0.90591689141009D+03

 The electronic state is 1-A.
 Alpha  occ. eigenvalues --  -92.02874 -20.56654 -20.54729 -15.63927 -15.60516
 Alpha  occ. eigenvalues --  -15.60120 -11.39858 -11.38596 -11.33758 -11.31645
 Alpha  occ. eigenvalues --  -11.31522  -9.03007  -6.71265  -6.71083  -6.70929
 Alpha  occ. eigenvalues --   -1.41886  -1.40265  -1.28024  -1.23136  -1.22740
 Alpha  occ. eigenvalues --   -1.12218  -1.03705  -0.91788  -0.87343  -0.81664
 Alpha  occ. eigenvalues --   -0.76794  -0.75829  -0.71867  -0.70140  -0.67578
 Alpha  occ. eigenvalues --   -0.64464  -0.63016  -0.61510  -0.59204  -0.58490
 Alpha  occ. eigenvalues --   -0.57056  -0.56581  -0.53315  -0.51949  -0.47860
 Alpha  occ. eigenvalues --   -0.47111  -0.45769  -0.43316  -0.42606  -0.39110
 Alpha virt. eigenvalues --    0.02583   0.04157   0.05115   0.05494   0.07342
 Alpha virt. eigenvalues --    0.07524   0.08394   0.08641   0.09490   0.10546
 Alpha virt. eigenvalues --    0.10755   0.11907   0.12569   0.12780   0.13185

 Mulliken atomic charges:
              1
     1  C    0.295858
     2  O   -0.452694
     3  N   -0.090442
     4  H    0.327819
     5  C   -0.305251
     6  H    0.271635
     7  C    0.162356
     8  O   -0.404181
     9  H    0.235627
    10  H    0.236893
    11  C   -0.471308
    12  S    0.158812
    13  C   -0.118804
    14  N   -0.198007
    15  N   -0.501312
    16  H    0.160374
    17  H    0.320844
    18  H    0.371781
 Sum of Mulliken atomic charges =   0.00000

 Dipole moment (field-independent basis, Debye):
    X=              4.3155    Y=             -2.3779    Z=              1.3904  Tot=              5.1197
 Quadrupole moment (field-independent basis, Debye-Ang):
   XX=            -93.6155   YY=            -80.4491   ZZ=            -68.0706
   XY=              6.7825   XZ=              3.1737   YZ=            -10.0445

 Normal termination of Gaussian 09 at Wed Feb 19 12:41:34 2020.
