 Gaussian 09, Revision A.02,
 Gaussian 09:  EM64L-G09RevA.02 11-Jun-2009

 ---------------------------------------------------------
 #P opt=(maxcycle=400) MP2/6-31G* Guess=INDO MaxDisk=100GB
 ---------------------------------------------------------

 ---------------------------------------------------------------
 ModifiedRes Gaussian SP Calculation on g2-node38.bme.utexas.edu
 ---------------------------------------------------------------
 Symbolic Z-matrix:
 Charge =  0 Multiplicity = 1

 SCF Done:  E(RHF) =  -903.882403129     A.U. after   17 cycles
 E2 =    -0.1602481031D+01 EUMP2 =    -0.90548488416033D+03
 SCF Done:  E(RHF) =  -903.910393349     A.U. after   15 cycles
 E2 =    -0.1605815154D+01 EUMP2 =    -0.90551620850242D+03
 SCF Done:  E(RHF) =  -903.938120949     A.U. after   16 cycles
 E2 =    -0.1614790352D+01 EUMP2 =    -0.90555291130103D+03
 SCF Done:  E(RHF) =  -903.966132926     A.U. after   16 cycles
 E2 =    -0.1611435612D+01 EUMP2 =    -0.90557756853817D+03
 SCF Done:  E(RHF) =  -903.981336370     A.U. after   15 cycles
 E2 =    -0.1606327327D+01 EUMP2 =    -0.90558766369726D+03
 SCF Done:  E(RHF) =  -903.990166821     A.U. after   16 cycles
 E2 =    -0.1603161354D+01 EUMP2 =    -0.90559332817569D+03
 SCF Done:  E(RHF) =  -903.991795254     A.U. after   15 cycles
 E2 =    -0.1603325903D+01 EUMP2 =    -0.90559512115746D+03
 SCF Done:  E(RHF) =  -903.991404205     A.U. after   15 cycles
 E2 =    -0.1604640965D+01 EUMP2 =    -0.90559604516972D+03
 SCF Done:  E(RHF) =  -903.991228059     A.U. after   14 cycles
 E2 =    -0.1605108939D+01 EUMP2 =    -0.90559633699780D+03
 SCF Done:  E(RHF) =  -903.991749974     A.U. after   13 cycles
 E2 =    -0.1604812061D+01 EUMP2 =    -0.90559656203443D+03
 E2 =    -0.1604297311D+01 EUMP2 =    -0.90559669747247D+03
 E2 =    -0.1603758687D+01 EUMP2 =    -0.90559682596950D+03
 E2 =    -0.1603488841D+01 EUMP2 =    -0.90559692900264D+03
 E2 =    -0.1603291287D+01 EUMP2 =    -0.90559711437934D+03
 E2 =    -0.1603386006D+01 EUMP2 =    -0.90559722250979D+03
 E2 =    -0.1603518284D+01 EUMP2 =    -0.90559732738289D+03
 E2 =    -0.1603578661D+01 EUMP2 =    -0.90559742425719D+03
 E2 =    -0.1603468787D+01 EUMP2 =    -0.90559754254877D+03
 E2 =    -0.1603341690D+01 EUMP2 =    -0.90559764982379D+03
 E2 =    -0.1603283993D+01 EUMP2 =    -0.90559784511356D+03
 E2 =    -0.1603119802D+01 EUMP2 =    -0.90559952795399D+03
 E2 =    -0.1613292241D+01 EUMP2 =    -0.90554659529563D+03
 E2 =    -0.1603811711D+01 EUMP2 =    -0.90560117215744D+03
 E2 =    -0.1604415958D+01 EUMP2 =    -0.90560158150737D+03
 E2 =    -0.1604475808D+01 EUMP2 =    -0.90560220856550D+03
 E2 =    -0.1603280152D+01 EUMP2 =    -0.90560100591269D+03
 E2 =    -0.1604070939D+01 EUMP2 =    -0.90560276122903D+03
 E2 =    -0.1604386122D+01 EUMP2 =    -0.90560277821060D+03
 E2 =    -0.1604238035D+01 EUMP2 =    -0.90560305378336D+03
 E2 =    -0.1604203292D+01 EUMP2 =    -0.90560315364348D+03
 SCF Done:  E(RHF) =  -903.999021579     A.U. after   13 cycles
 E2 =    -0.1604282153D+01 EUMP2 =    -0.90560330373222D+03
 SCF Done:  E(RHF) =  -903.999109618     A.U. after   12 cycles
 E2 =    -0.1604276677D+01 EUMP2 =    -0.90560338629452D+03
 SCF Done:  E(RHF) =  -903.999147968     A.U. after   13 cycles
 E2 =    -0.1604326194D+01 EUMP2 =    -0.90560347416129D+03
 SCF Done:  E(RHF) =  -903.999175086     A.U. after   13 cycles
 E2 =    -0.1604379182D+01 EUMP2 =    -0.90560355426736D+03
 SCF Done:  E(RHF) =  -903.999181210     A.U. after   12 cycles
 E2 =    -0.1604383195D+01 EUMP2 =    -0.90560356440446D+03
 SCF Done:  E(RHF) =  -903.999182457     A.U. after   12 cycles
 E2 =    -0.1604390758D+01 EUMP2 =    -0.90560357321453D+03
 SCF Done:  E(RHF) =  -903.999178875     A.U. after   11 cycles
 E2 =    -0.1604396844D+01 EUMP2 =    -0.90560357571949D+03
 SCF Done:  E(RHF) =  -903.999178046     A.U. after   10 cycles
 E2 =    -0.1604398457D+01 EUMP2 =    -0.90560357650299D+03
 SCF Done:  E(RHF) =  -903.999184689     A.U. after   10 cycles
 E2 =    -0.1604391981D+01 EUMP2 =    -0.90560357667000D+03
 SCF Done:  E(RHF) =  -903.999190487     A.U. after    9 cycles
 E2 =    -0.1604386239D+01 EUMP2 =    -0.90560357672534D+03
 Optimization completed.
    -- Stationary point found.

                         Standard orientation:
 ---------------------------------------------------------------------
 Center     Atomic      Atomic             Coordinates (Angstroms)
 Number     Number       Type             X           Y           Z
 ---------------------------------------------------------------------
      1          6           0        1.918037   -1.794855    0.462741
      2          8           0        2.577912   -1.790537   -0.578815
      3          7           0        0.932454   -0.899787    0.745205
      4          1           0        0.546111   -0.877034    1.683512
      5          6           0        0.585762    0.167214   -0.187510
      6          1           0        0.701817   -0.253119   -1.192694
      7          6           0        1.538359    1.364330   -0.022598
      8          8           0        1.197539    2.384743    0.576545
      9          1           0       -0.951510    1.098530    1.008749
     10          1           0       -1.115534    1.354082   -0.735699
     11          6           0       -0.844902    0.625723    0.030817
     12         16           0       -1.940728   -0.836397   -0.099663
     13          6           0       -3.423067   -0.010598   -0.128079
     14          7           0       -4.474938    0.537065   -0.149686
     15          7           0        2.752296    1.169215   -0.597354
     16          1           0        2.062169   -2.547535    1.254252
     17          1           0        3.018845    0.240314   -0.910457
     18          1           0        3.472329    1.857136   -0.414284
 ---------------------------------------------------------------------

 The electronic state is 1-A.
 Alpha  occ. eigenvalues --  -92.01424 -20.57521 -20.54994 -15.64344 -15.60283
 Alpha  occ. eigenvalues --  -15.60117 -11.39817 -11.37907 -11.32648 -11.31395
 Alpha  occ. eigenvalues --  -11.30705  -9.02349  -6.70657  -6.70461  -6.70260
 Alpha  occ. eigenvalues --   -1.41718  -1.39412  -1.28387  -1.22459  -1.22019
 Alpha  occ. eigenvalues --   -1.12391  -1.03482  -0.91245  -0.87298  -0.81383
 Alpha  occ. eigenvalues --   -0.76155  -0.75421  -0.71352  -0.69732  -0.67069
 Alpha  occ. eigenvalues --   -0.64019  -0.62205  -0.61675  -0.58668  -0.57690
 Alpha  occ. eigenvalues --   -0.56466  -0.55854  -0.53286  -0.51319  -0.47387
 Alpha  occ. eigenvalues --   -0.46500  -0.45317  -0.42705  -0.41855  -0.38530
 Alpha virt. eigenvalues --    0.12124   0.14475   0.16570   0.18169   0.19719
 Alpha virt. eigenvalues --    0.20645   0.21937   0.22912   0.24046   0.26678
 Alpha virt. eigenvalues --    0.27545   0.29281   0.32762   0.34355   0.37464

 Mulliken atomic charges:
              1
     1  C    0.528823
     2  O   -0.602758
     3  N   -0.772949
     4  H    0.412971
     5  C   -0.096216
     6  H    0.258150
     7  C    0.781127
     8  O   -0.619521
     9  H    0.251159
    10  H    0.252957
    11  C   -0.497359
    12  S    0.296558
    13  C    0.083044
    14  N   -0.384084
    15  N   -0.939363
    16  H    0.195878
    17  H    0.451760
    18  H    0.399821
 Sum of Mulliken atomic charges =   0.00000

 Dipole moment (field-independent basis, Debye):
    X=              4.0764    Y=             -2.4889    Z=              1.7330  Tot=              5.0808
 Quadrupole moment (field-independent basis, Debye-Ang):
   XX=            -90.4715   YY=            -79.4659   ZZ=            -68.1464
   XY=              5.7921   XZ=              2.4839   YZ=             -8.9211

 Normal termination of Gaussian 09 at Wed Feb 19 12:18:13 2020.
