 Gaussian 09, Revision A.02,
 Gaussian 09:  EM64L-G09RevA.02 11-Jun-2009

 ----------------------------------------------------------------------
 #P MP2/6-311++G** SP SCF=(qc,maxcycle=800) Guess=Indo MaxDisk=100GB Po
 p=NBORead
 ----------------------------------------------------------------------

 ---------------------------------------------------------------------
 ModifiedRes Rotatable Bond SP Calculation on g2-node38.bme.utexas.edu
 ---------------------------------------------------------------------
 Symbolic Z-matrix:
 Charge =  0 Multiplicity = 1

                         Standard orientation:
 ---------------------------------------------------------------------
 Center     Atomic      Atomic             Coordinates (Angstroms)
 Number     Number       Type             X           Y           Z
 ---------------------------------------------------------------------
      1          6           0        1.502971    2.041473   -0.407074
      2          8           0        2.515500    2.038546    0.302201
      3          7           0        0.581690    1.035541   -0.380504
      4          1           0       -0.090616    1.012889   -1.140900
      5          6           0        0.622220   -0.078166    0.594774
      6          1           0        1.049388    0.324544    1.525760
      7          6           0        1.536246   -1.195133    0.046140
      8          8           0        1.052321   -2.304120   -0.187918
      9          1           0       -0.679425   -1.614342    1.390755
     10          1           0       -1.260424    0.038818    1.682970
     11          6           0       -0.783617   -0.618389    0.953084
     12         16           0       -1.921451   -0.736138   -0.499532
     13          6           0       -3.114376    0.391483   -0.051356
     14          7           0       -3.905461    1.215229    0.262598
     15          7           0        2.846330   -0.878403   -0.129084
     16          1           0        1.288298    2.837918   -1.136891
     17          1           0        3.182774    0.038246    0.155490
     18          1           0        3.472079   -1.589449   -0.483413
 ---------------------------------------------------------------------

 SCF Done:  E(RHF) =  -904.160014547     a.u. after   11 cycles
 E2 =    -0.1756989966D+01 EUMP2 =    -0.90591700451267D+03

 The electronic state is 1-A.
 Alpha  occ. eigenvalues --  -92.03073 -20.56175 -20.54659 -15.63120 -15.60327
 Alpha  occ. eigenvalues --  -15.60141 -11.39354 -11.38321 -11.33595 -11.31883
 Alpha  occ. eigenvalues --  -11.31715  -9.03197  -6.71443  -6.71260  -6.71126
 Alpha  occ. eigenvalues --   -1.41444  -1.40184  -1.27311  -1.23158  -1.22722
 Alpha  occ. eigenvalues --   -1.12007  -1.03743  -0.92104  -0.86511  -0.80973
 Alpha  occ. eigenvalues --   -0.76812  -0.75580  -0.71533  -0.69859  -0.67151
 Alpha  occ. eigenvalues --   -0.64281  -0.63091  -0.60258  -0.60066  -0.58294
 Alpha  occ. eigenvalues --   -0.57367  -0.56385  -0.52927  -0.52461  -0.47713
 Alpha  occ. eigenvalues --   -0.46668  -0.45859  -0.43154  -0.42189  -0.39608
 Alpha virt. eigenvalues --    0.03307   0.03928   0.04778   0.05966   0.06787
 Alpha virt. eigenvalues --    0.07730   0.08246   0.08956   0.09771   0.10125
 Alpha virt. eigenvalues --    0.10837   0.12196   0.12672   0.12944   0.13353

 Mulliken atomic charges:
              1
     1  C    0.296735
     2  O   -0.461018
     3  N   -0.222155
     4  H    0.294981
     5  C    0.255292
     6  H    0.301082
     7  C   -0.007544
     8  O   -0.423631
     9  H    0.285738
    10  H    0.230111
    11  C   -0.782118
    12  S    0.320992
    13  C   -0.224511
    14  N   -0.196045
    15  N   -0.513198
    16  H    0.164231
    17  H    0.325233
    18  H    0.355825
 Sum of Mulliken atomic charges =   0.00000

 Dipole moment (field-independent basis, Debye):
    X=              2.6861    Y=              0.2918    Z=             -0.5519  Tot=              2.7577
 Quadrupole moment (field-independent basis, Debye-Ang):
   XX=            -88.6674   YY=            -83.3041   ZZ=            -66.9441
   XY=              1.6310   XZ=             -1.7283   YZ=             -7.3123

 Normal termination of Gaussian 09 at Wed Feb 19 12:41:14 2020.
