 Gaussian 09, Revision A.02,
 Gaussian 09:  EM64L-G09RevA.02 11-Jun-2009

 ----------------------------------------------
 #P opt=(,maxcycle=400) HF/6-31G* MaxDisk=100GB
 ----------------------------------------------

 -------------------------------------------------------------------
 ModifiedRes Rotatable Bond Optimization on g2-node38.bme.utexas.edu
 -------------------------------------------------------------------
 Symbolic Z-matrix:
 Charge =  0 Multiplicity = 1

 SCF Done:  E(RHF) =  -903.979650365     A.U. after   16 cycles
 SCF Done:  E(RHF) =  -903.995066942     A.U. after   15 cycles
 SCF Done:  E(RHF) =  -903.997797833     A.U. after   13 cycles
 SCF Done:  E(RHF) =  -904.000800050     A.U. after   17 cycles
 SCF Done:  E(RHF) =  -904.003667667     A.U. after   15 cycles
 SCF Done:  E(RHF) =  -904.006390472     A.U. after   15 cycles
 SCF Done:  E(RHF) =  -904.007192688     A.U. after   15 cycles
 SCF Done:  E(RHF) =  -904.008145443     A.U. after   13 cycles
 SCF Done:  E(RHF) =  -904.008230086     A.U. after   14 cycles
 SCF Done:  E(RHF) =  -904.008620233     A.U. after   13 cycles
 SCF Done:  E(RHF) =  -904.009050356     A.U. after   17 cycles
 SCF Done:  E(RHF) =  -904.009116054     A.U. after   14 cycles
 SCF Done:  E(RHF) =  -904.009130751     A.U. after   14 cycles
 SCF Done:  E(RHF) =  -904.009257256     A.U. after   14 cycles
 SCF Done:  E(RHF) =  -904.009274203     A.U. after   12 cycles
 SCF Done:  E(RHF) =  -904.009277466     A.U. after   11 cycles
 SCF Done:  E(RHF) =  -904.009278054     A.U. after   10 cycles
 SCF Done:  E(RHF) =  -904.009278381     A.U. after   10 cycles
 SCF Done:  E(RHF) =  -904.009278569     A.U. after    9 cycles
 SCF Done:  E(RHF) =  -904.009278673     A.U. after    8 cycles
 Optimization completed.
    -- Stationary point found.

                         Standard orientation:
 ---------------------------------------------------------------------
 Center     Atomic      Atomic             Coordinates (Angstroms)
 Number     Number       Type             X           Y           Z
 ---------------------------------------------------------------------
      1          6           0        1.066547    2.325534   -0.321714
      2          8           0        0.633154    2.686375    0.732803
      3          7           0        1.166043    1.035859   -0.707977
      4          1           0        1.632260    0.805515   -1.558663
      5          6           0        0.879764   -0.057186    0.183104
      6          1           0        0.906490    0.319552    1.196511
      7          6           0        1.952531   -1.130320   -0.020777
      8          8           0        2.478671   -1.274314   -1.087912
      9          1           0       -0.547733   -0.997213   -1.131869
     10          1           0       -0.609890   -1.590673    0.523843
     11          6           0       -0.484232   -0.711213   -0.091802
     12         16           0       -1.847616    0.454898    0.288240
     13          6           0       -3.144075   -0.577435   -0.123877
     14          7           0       -4.018783   -1.253525   -0.391339
     15          7           0        2.203198   -1.915007    1.044519
     16          1           0        1.418335    3.022633   -1.080048
     17          1           0        1.883143   -1.689075    1.957802
     18          1           0        2.908230   -2.613161    0.955432
 ---------------------------------------------------------------------

 The electronic state is 1-A.
 Alpha  occ. eigenvalues --  -92.00520 -20.56329 -20.55045 -15.61963 -15.61158
 Alpha  occ. eigenvalues --  -15.58440 -11.38819 -11.36707 -11.32117 -11.30433
 Alpha  occ. eigenvalues --  -11.29587  -9.01388  -6.69680  -6.69498  -6.69280
 Alpha  occ. eigenvalues --   -1.43399  -1.41397  -1.27013  -1.25236  -1.23864
 Alpha  occ. eigenvalues --   -1.11754  -1.03080  -0.91161  -0.86298  -0.82133
 Alpha  occ. eigenvalues --   -0.78961  -0.74203  -0.70702  -0.68772  -0.67267
 Alpha  occ. eigenvalues --   -0.65486  -0.63382  -0.62339  -0.59429  -0.58383
 Alpha  occ. eigenvalues --   -0.56091  -0.55462  -0.53056  -0.51871  -0.47184
 Alpha  occ. eigenvalues --   -0.45320  -0.44851  -0.44468  -0.41480  -0.38232
 Alpha virt. eigenvalues --    0.12323   0.17781   0.18370   0.19057   0.20910
 Alpha virt. eigenvalues --    0.21862   0.23136   0.23339   0.24528   0.25578
 Alpha virt. eigenvalues --    0.28789   0.29322   0.31105   0.35714   0.38039

 Mulliken atomic charges:
              1
     1  C    0.518519
     2  O   -0.567244
     3  N   -0.764936
     4  H    0.422605
     5  C   -0.084173
     6  H    0.247387
     7  C    0.760630
     8  O   -0.597752
     9  H    0.243135
    10  H    0.230493
    11  C   -0.491953
    12  S    0.324593
    13  C    0.075015
    14  N   -0.385022
    15  N   -0.914564
    16  H    0.172998
    17  H    0.401121
    18  H    0.409149
 Sum of Mulliken atomic charges =   0.00000

 Dipole moment (field-independent basis, Debye):
    X=              4.9144    Y=             -1.3269    Z=              1.2910  Tot=              5.2515
 Quadrupole moment (field-independent basis, Debye-Ang):
   XX=            -87.6260   YY=            -74.8827   ZZ=            -68.1053
   XY=             -6.8760   XZ=              3.7557   YZ=            -14.4532

 Normal termination of Gaussian 09 at Wed Feb 19 12:48:22 2020.
