 Gaussian 09, Revision A.02,
 Gaussian 09:  EM64L-G09RevA.02 11-Jun-2009

 ----------------------------------------------------------------------
 #P MP2/6-311++G** SP SCF=(qc,maxcycle=800) Guess=Indo MaxDisk=100GB Po
 p=NBORead
 ----------------------------------------------------------------------

 ---------------------------------------------------------------------
 ModifiedRes Rotatable Bond SP Calculation on g2-node38.bme.utexas.edu
 ---------------------------------------------------------------------
 Symbolic Z-matrix:
 Charge =  0 Multiplicity = 1

                         Standard orientation:
 ---------------------------------------------------------------------
 Center     Atomic      Atomic             Coordinates (Angstroms)
 Number     Number       Type             X           Y           Z
 ---------------------------------------------------------------------
      1          6           0       -1.968524    1.918793    0.334359
      2          8           0       -2.538044    1.881280   -0.759436
      3          7           0       -1.019780    1.009956    0.700491
      4          1           0       -0.643047    1.061300    1.642558
      5          6           0       -0.642994   -0.133113   -0.151240
      6          1           0       -0.755020    0.206633   -1.191400
      7          6           0       -1.599084   -1.315985    0.098122
      8          8           0       -1.870421   -1.627434    1.257761
      9          1           0        0.926947   -0.916501    1.137838
     10          1           0        1.054214   -1.405560   -0.564415
     11          6           0        0.806577   -0.578534    0.104891
     12         16           0        1.988704    0.802905   -0.223159
     13          6           0        3.448670   -0.056645   -0.072469
     14          7           0        4.454122   -0.667736    0.069381
     15          7           0       -2.083912   -1.948681   -1.003684
     16          1           0       -2.182471    2.688352    1.092790
     17          1           0       -1.951164   -1.554628   -1.926784
     18          1           0       -2.721875   -2.718710   -0.851936
 ---------------------------------------------------------------------

 SCF Done:  E(RHF) =  -904.158474640     a.u. after   12 cycles
 E2 =    -0.1755251917D+01 EUMP2 =    -0.90591372655627D+03

 The electronic state is 1-A.
 Alpha  occ. eigenvalues --  -92.03391 -20.54975 -20.54966 -15.62434 -15.61904
 Alpha  occ. eigenvalues --  -15.60550 -11.38964 -11.38223 -11.33730 -11.32402
 Alpha  occ. eigenvalues --  -11.32045  -9.03513  -6.71763  -6.71584  -6.71426
 Alpha  occ. eigenvalues --   -1.40946  -1.39801  -1.26595  -1.24261  -1.23223
 Alpha  occ. eigenvalues --   -1.12605  -1.03953  -0.91903  -0.86760  -0.81488
 Alpha  occ. eigenvalues --   -0.77263  -0.74758  -0.72698  -0.69368  -0.67398
 Alpha  occ. eigenvalues --   -0.63720  -0.63192  -0.62821  -0.58955  -0.58089
 Alpha  occ. eigenvalues --   -0.56869  -0.56207  -0.53983  -0.52380  -0.46942
 Alpha  occ. eigenvalues --   -0.45771  -0.45696  -0.44199  -0.42287  -0.39515
 Alpha virt. eigenvalues --    0.03010   0.03636   0.05289   0.05574   0.06867
 Alpha virt. eigenvalues --    0.07015   0.08218   0.08840   0.09441   0.10245
 Alpha virt. eigenvalues --    0.11419   0.12012   0.12507   0.12958   0.13447

 Mulliken atomic charges:
              1
     1  C    0.289860
     2  O   -0.413886
     3  N   -0.095823
     4  H    0.336839
     5  C   -0.841945
     6  H    0.251761
     7  C    0.441689
     8  O   -0.399910
     9  H    0.237730
    10  H    0.199799
    11  C   -0.264888
    12  S    0.223586
    13  C   -0.117699
    14  N   -0.205016
    15  N   -0.421328
    16  H    0.144852
    17  H    0.273022
    18  H    0.361357
 Sum of Mulliken atomic charges =   0.00000

 Dipole moment (field-independent basis, Debye):
    X=             -1.9995    Y=             -0.0660    Z=             -0.8167  Tot=              2.1609
 Quadrupole moment (field-independent basis, Debye-Ang):
   XX=           -101.3989   YY=            -70.6765   ZZ=            -70.3654
   XY=              9.4842   XZ=              1.3425   YZ=             14.7751

 Normal termination of Gaussian 09 at Wed Feb 19 12:55:28 2020.
