 Gaussian 09, Revision A.02,
 Gaussian 09:  EM64L-G09RevA.02 11-Jun-2009

 ----------------------------------------------------------------------
 #P MP2/6-311++G** SP SCF=(qc,maxcycle=800) Guess=Indo MaxDisk=100GB Po
 p=NBORead
 ----------------------------------------------------------------------

 ---------------------------------------------------------------------
 ModifiedRes Rotatable Bond SP Calculation on g2-node38.bme.utexas.edu
 ---------------------------------------------------------------------
 Symbolic Z-matrix:
 Charge =  0 Multiplicity = 1

                         Standard orientation:
 ---------------------------------------------------------------------
 Center     Atomic      Atomic             Coordinates (Angstroms)
 Number     Number       Type             X           Y           Z
 ---------------------------------------------------------------------
      1          6           0        2.845189   -1.386505    0.220594
      2          8           0        3.260431   -0.923362   -0.847701
      3          7           0        1.604771   -1.099966    0.710416
      4          1           0        1.416232   -1.298792    1.688490
      5          6           0        0.659163   -0.251271   -0.031795
      6          1           0        0.845976   -0.431835   -1.100916
      7          6           0        0.925345    1.234418    0.275853
      8          8           0        0.302925    1.776534    1.189368
      9          1           0       -0.882115   -1.733934    0.293027
     10          1           0       -1.005685   -0.309424    1.354281
     11          6           0       -0.781652   -0.647607    0.338024
     12         16           0       -1.965603    0.149351   -0.826116
     13          6           0       -3.420959   -0.315376   -0.082128
     14          7           0       -4.448868   -0.628162    0.418959
     15          7           0        1.873827    1.832944   -0.491224
     16          1           0        3.452976   -2.040719    0.865058
     17          1           0        2.464186    1.255899   -1.084438
     18          1           0        2.080604    2.808148   -0.321326
 ---------------------------------------------------------------------

 SCF Done:  E(RHF) =  -904.159048152     a.u. after   11 cycles
 E2 =    -0.1756785000D+01 EUMP2 =    -0.90591583315219D+03

 The electronic state is 1-A.
 Alpha  occ. eigenvalues --  -92.02547 -20.56592 -20.54567 -15.63884 -15.60637
 Alpha  occ. eigenvalues --  -15.59746 -11.39780 -11.38274 -11.33403 -11.31341
 Alpha  occ. eigenvalues --  -11.31158  -9.02681  -6.70942  -6.70760  -6.70598
 Alpha  occ. eigenvalues --   -1.41777  -1.40154  -1.27884  -1.23260  -1.22424
 Alpha  occ. eigenvalues --   -1.12179  -1.03276  -0.91806  -0.87142  -0.81514
 Alpha  occ. eigenvalues --   -0.77043  -0.75082  -0.71688  -0.70943  -0.66850
 Alpha  occ. eigenvalues --   -0.64386  -0.63183  -0.61715  -0.58325  -0.57558
 Alpha  occ. eigenvalues --   -0.57050  -0.56544  -0.53281  -0.51503  -0.47673
 Alpha  occ. eigenvalues --   -0.47220  -0.45316  -0.43479  -0.42389  -0.38703
 Alpha virt. eigenvalues --    0.02449   0.04207   0.04840   0.05384   0.07338
 Alpha virt. eigenvalues --    0.07474   0.08541   0.08974   0.09077   0.10267
 Alpha virt. eigenvalues --    0.11447   0.12119   0.12262   0.12827   0.13378

 Mulliken atomic charges:
              1
     1  C    0.304752
     2  O   -0.450099
     3  N   -0.076256
     4  H    0.345106
     5  C   -0.368522
     6  H    0.329081
     7  C    0.155372
     8  O   -0.383950
     9  H    0.238983
    10  H    0.227889
    11  C   -0.504436
    12  S    0.348706
    13  C   -0.376009
    14  N   -0.174218
    15  N   -0.423404
    16  H    0.155547
    17  H    0.308089
    18  H    0.343369
 Sum of Mulliken atomic charges =   0.00000

 Dipole moment (field-independent basis, Debye):
    X=              5.2237    Y=             -1.7932    Z=              0.3439  Tot=              5.5336
 Quadrupole moment (field-independent basis, Debye-Ang):
   XX=            -95.9628   YY=            -68.8918   ZZ=            -73.0023
   XY=             -1.0256   XZ=             11.0065   YZ=            -10.5275

 Normal termination of Gaussian 09 at Wed Feb 19 12:41:32 2020.
