 Gaussian 09, Revision A.02,
 Gaussian 09:  EM64L-G09RevA.02 11-Jun-2009

 ----------------------------------------------------------------------
 #P MP2/6-311++G** SP SCF=(qc,maxcycle=800) Guess=Indo MaxDisk=100GB Po
 p=NBORead
 ----------------------------------------------------------------------

 ---------------------------------------------------------------------
 ModifiedRes Rotatable Bond SP Calculation on g2-node38.bme.utexas.edu
 ---------------------------------------------------------------------
 Symbolic Z-matrix:
 Charge =  0 Multiplicity = 1

                         Standard orientation:
 ---------------------------------------------------------------------
 Center     Atomic      Atomic             Coordinates (Angstroms)
 Number     Number       Type             X           Y           Z
 ---------------------------------------------------------------------
      1          6           0       -1.813084    1.949219    0.529632
      2          8           0       -2.344085    2.196829   -0.552038
      3          7           0       -0.967519    0.895855    0.762191
      4          1           0       -0.629381    0.776117    1.711337
      5          6           0       -0.658312   -0.150009   -0.240755
      6          1           0       -0.695218    0.340815   -1.227073
      7          6           0       -1.735854   -1.264422   -0.199457
      8          8           0       -2.567134   -1.342787   -1.094674
      9          1           0        0.867621   -1.252309    0.971279
     10          1           0        0.985399   -1.498378   -0.777230
     11          6           0        0.757872   -0.750148   -0.004537
     12         16           0        1.936701    0.686842   -0.120827
     13          6           0        3.475885   -0.026526   -0.096092
     14          7           0        4.547757   -0.523308   -0.078866
     15          7           0       -1.721677   -2.133877    0.843292
     16          1           0       -1.959025    2.588388    1.408789
     17          1           0       -1.062803   -2.093595    1.609200
     18          1           0       -2.373020   -2.902226    0.791580
 ---------------------------------------------------------------------

 SCF Done:  E(RHF) =  -904.144777808     a.u. after   12 cycles
 E2 =    -0.1755900204D+01 EUMP2 =    -0.90590067801107D+03

 The electronic state is 1-A.
 Alpha  occ. eigenvalues --  -92.03647 -20.54984 -20.54808 -15.63205 -15.61991
 Alpha  occ. eigenvalues --  -15.60750 -11.38852 -11.38184 -11.34234 -11.33746
 Alpha  occ. eigenvalues --  -11.32232  -9.03765  -6.72023  -6.71823  -6.71676
 Alpha  occ. eigenvalues --   -1.41044  -1.39752  -1.27436  -1.24190  -1.23656
 Alpha  occ. eigenvalues --   -1.12651  -1.03880  -0.92540  -0.86540  -0.83060
 Alpha  occ. eigenvalues --   -0.78006  -0.75351  -0.71631  -0.69656  -0.67521
 Alpha  occ. eigenvalues --   -0.63671  -0.63108  -0.62596  -0.58751  -0.58393
 Alpha  occ. eigenvalues --   -0.57272  -0.56599  -0.54557  -0.52982  -0.47426
 Alpha  occ. eigenvalues --   -0.46309  -0.45473  -0.44049  -0.41897  -0.39736
 Alpha virt. eigenvalues --    0.01490   0.03488   0.04812   0.05152   0.06652
 Alpha virt. eigenvalues --    0.07119   0.07841   0.08509   0.09429   0.10046
 Alpha virt. eigenvalues --    0.11082   0.12140   0.12371   0.12924   0.13176

 Mulliken atomic charges:
              1
     1  C    0.275736
     2  O   -0.384449
     3  N   -0.143675
     4  H    0.317791
     5  C   -0.400732
     6  H    0.309137
     7  C    0.217413
     8  O   -0.355094
     9  H    0.151647
    10  H    0.240337
    11  C   -0.434331
    12  S    0.257137
    13  C   -0.106146
    14  N   -0.203939
    15  N   -0.495902
    16  H    0.134706
    17  H    0.253320
    18  H    0.367045
 Sum of Mulliken atomic charges =   0.00000

 Dipole moment (field-independent basis, Debye):
    X=             -0.2108    Y=             -2.2656    Z=              6.1597  Tot=              6.5665
 Quadrupole moment (field-independent basis, Debye-Ang):
   XX=           -110.9292   YY=            -69.0123   ZZ=            -68.9222
   XY=              7.8496   XZ=            -13.0581   YZ=              0.2757

 Normal termination of Gaussian 09 at Wed Feb 19 12:54:53 2020.
