 Gaussian 09, Revision A.02,
 Gaussian 09:  EM64L-G09RevA.02 11-Jun-2009

 ----------------------------------------------------------------------
 #P MP2/6-311++G** SP SCF=(qc,maxcycle=800) Guess=Indo MaxDisk=100GB Po
 p=NBORead
 ----------------------------------------------------------------------

 ---------------------------------------------------------------------
 ModifiedRes Rotatable Bond SP Calculation on g2-node38.bme.utexas.edu
 ---------------------------------------------------------------------
 Symbolic Z-matrix:
 Charge =  0 Multiplicity = 1

                         Standard orientation:
 ---------------------------------------------------------------------
 Center     Atomic      Atomic             Coordinates (Angstroms)
 Number     Number       Type             X           Y           Z
 ---------------------------------------------------------------------
      1          6           0       -1.962656    1.880446    0.443233
      2          8           0       -2.559057    1.869560   -0.637452
      3          7           0       -1.004600    0.962763    0.760180
      4          1           0       -0.617368    0.970701    1.699481
      5          6           0       -0.634429   -0.131960   -0.151887
      6          1           0       -0.758922    0.258743   -1.172466
      7          6           0       -1.586414   -1.326328    0.050344
      8          8           0       -1.573388   -1.916583    1.130934
      9          1           0        0.952689   -0.973709    1.075937
     10          1           0        1.060493   -1.376350   -0.650548
     11          6           0        0.820353   -0.584761    0.062562
     12         16           0        1.997492    0.812360   -0.210127
     13          6           0        3.461989   -0.048244   -0.120698
     14          7           0        4.471776   -0.661013   -0.022668
     15          7           0       -2.387632   -1.649967   -0.998654
     16          1           0       -2.162029    2.626178    1.228785
     17          1           0       -2.504405   -0.995036   -1.762672
     18          1           0       -3.020646   -2.429499   -0.877679
 ---------------------------------------------------------------------

 SCF Done:  E(RHF) =  -904.159924981     a.u. after   12 cycles
 E2 =    -0.1755222001D+01 EUMP2 =    -0.90591514698245D+03

 The electronic state is 1-A.
 Alpha  occ. eigenvalues --  -92.03157 -20.55520 -20.54920 -15.62941 -15.61636
 Alpha  occ. eigenvalues --  -15.60358 -11.38859 -11.38748 -11.33644 -11.32002
 Alpha  occ. eigenvalues --  -11.31866  -9.03283  -6.71536  -6.71357  -6.71200
 Alpha  occ. eigenvalues --   -1.41087  -1.40188  -1.27072  -1.24046  -1.23022
 Alpha  occ. eigenvalues --   -1.12395  -1.03844  -0.91833  -0.86936  -0.81494
 Alpha  occ. eigenvalues --   -0.77169  -0.74995  -0.72535  -0.69477  -0.67582
 Alpha  occ. eigenvalues --   -0.63734  -0.63175  -0.62848  -0.58422  -0.58127
 Alpha  occ. eigenvalues --   -0.56924  -0.56660  -0.53729  -0.52161  -0.46813
 Alpha  occ. eigenvalues --   -0.46313  -0.46133  -0.44047  -0.42302  -0.39295
 Alpha virt. eigenvalues --    0.03184   0.03598   0.05297   0.05717   0.06959
 Alpha virt. eigenvalues --    0.07125   0.08644   0.08819   0.09293   0.10552
 Alpha virt. eigenvalues --    0.11056   0.12180   0.12311   0.12883   0.13025

 Mulliken atomic charges:
              1
     1  C    0.306247
     2  O   -0.430603
     3  N   -0.135431
     4  H    0.342651
     5  C   -0.651950
     6  H    0.242450
     7  C    0.373993
     8  O   -0.416031
     9  H    0.243765
    10  H    0.215812
    11  C   -0.339030
    12  S    0.190939
    13  C   -0.105945
    14  N   -0.203508
    15  N   -0.431930
    16  H    0.152014
    17  H    0.288686
    18  H    0.357870
 Sum of Mulliken atomic charges =   0.00000

 Dipole moment (field-independent basis, Debye):
    X=             -3.0876    Y=              0.9428    Z=             -0.4064  Tot=              3.2538
 Quadrupole moment (field-independent basis, Debye-Ang):
   XX=            -96.8711   YY=            -74.9458   ZZ=            -69.7273
   XY=              9.0436   XZ=              1.5835   YZ=             13.6361

 Normal termination of Gaussian 09 at Wed Feb 19 12:53:16 2020.
