 Gaussian 09, Revision A.02,
 Gaussian 09:  EM64L-G09RevA.02 11-Jun-2009

 ----------------------------------------------
 #P opt=(,maxcycle=400) HF/6-31G* MaxDisk=100GB
 ----------------------------------------------

 -------------------------------------------------------------------
 ModifiedRes Rotatable Bond Optimization on g2-node38.bme.utexas.edu
 -------------------------------------------------------------------
 Symbolic Z-matrix:
 Charge =  0 Multiplicity = 1

 SCF Done:  E(RHF) =  -903.983508157     A.U. after   16 cycles
 SCF Done:  E(RHF) =  -903.997989867     A.U. after   14 cycles
 SCF Done:  E(RHF) =  -904.000459904     A.U. after   14 cycles
 SCF Done:  E(RHF) =  -904.002727762     A.U. after   17 cycles
 SCF Done:  E(RHF) =  -904.004242265     A.U. after   13 cycles
 SCF Done:  E(RHF) =  -904.005789418     A.U. after   13 cycles
 SCF Done:  E(RHF) =  -904.006098407     A.U. after   13 cycles
 SCF Done:  E(RHF) =  -904.006536065     A.U. after   14 cycles
 SCF Done:  E(RHF) =  -904.006924973     A.U. after   13 cycles
 SCF Done:  E(RHF) =  -904.007389717     A.U. after   13 cycles
 SCF Done:  E(RHF) =  -904.010239978     A.U. after   13 cycles
 SCF Done:  E(RHF) =  -904.010693255     A.U. after   14 cycles
 SCF Done:  E(RHF) =  -904.011057217     A.U. after   13 cycles
 SCF Done:  E(RHF) =  -904.011241444     A.U. after   12 cycles
 SCF Done:  E(RHF) =  -904.011329529     A.U. after   12 cycles
 SCF Done:  E(RHF) =  -904.011402267     A.U. after   12 cycles
 SCF Done:  E(RHF) =  -904.011455881     A.U. after   12 cycles
 SCF Done:  E(RHF) =  -904.011478953     A.U. after   11 cycles
 SCF Done:  E(RHF) =  -904.011480926     A.U. after   11 cycles
 SCF Done:  E(RHF) =  -904.011481419     A.U. after   10 cycles
 Optimization completed.
    -- Stationary point found.

                         Standard orientation:
 ---------------------------------------------------------------------
 Center     Atomic      Atomic             Coordinates (Angstroms)
 Number     Number       Type             X           Y           Z
 ---------------------------------------------------------------------
      1          6           0        1.915599   -1.808488    0.474308
      2          8           0        2.538397   -1.848939   -0.548237
      3          7           0        0.972175   -0.886643    0.757327
      4          1           0        0.598456   -0.858794    1.680597
      5          6           0        0.605103    0.165556   -0.176273
      6          1           0        0.716575   -0.245097   -1.170386
      7          6           0        1.544348    1.374098   -0.029412
      8          8           0        1.191556    2.377139    0.524074
      9          1           0       -0.966556    1.029379    1.030821
     10          1           0       -1.092875    1.371674   -0.679112
     11          6           0       -0.834721    0.614090    0.043882
     12         16           0       -1.956432   -0.821477   -0.176085
     13          6           0       -3.448508    0.002110   -0.102398
     14          7           0       -4.455875    0.527499   -0.054660
     15          7           0        2.763051    1.195961   -0.567552
     16          1           0        2.060557   -2.532528    1.273197
     17          1           0        3.054529    0.306032   -0.909491
     18          1           0        3.446219    1.905457   -0.421414
 ---------------------------------------------------------------------

 The electronic state is 1-A.
 Alpha  occ. eigenvalues --  -92.01086 -20.56948 -20.54877 -15.63316 -15.59695
 Alpha  occ. eigenvalues --  -15.58904 -11.38516 -11.37295 -11.32192 -11.30398
 Alpha  occ. eigenvalues --  -11.30068  -9.01994  -6.70303  -6.70113  -6.69909
 Alpha  occ. eigenvalues --   -1.43382  -1.41619  -1.28587  -1.24296  -1.23198
 Alpha  occ. eigenvalues --   -1.12241  -1.03302  -0.91355  -0.87051  -0.81774
 Alpha  occ. eigenvalues --   -0.76979  -0.75841  -0.71454  -0.69982  -0.67175
 Alpha  occ. eigenvalues --   -0.64519  -0.62830  -0.62090  -0.58994  -0.58406
 Alpha  occ. eigenvalues --   -0.57100  -0.56106  -0.53403  -0.52335  -0.47406
 Alpha  occ. eigenvalues --   -0.46508  -0.46142  -0.42873  -0.41765  -0.38692
 Alpha virt. eigenvalues --    0.12898   0.15863   0.17635   0.19447   0.20878
 Alpha virt. eigenvalues --    0.21185   0.22432   0.23475   0.24296   0.27396
 Alpha virt. eigenvalues --    0.28394   0.29671   0.32293   0.34516   0.37791

 Mulliken atomic charges:
              1
     1  C    0.521784
     2  O   -0.579055
     3  N   -0.768341
     4  H    0.406852
     5  C   -0.100407
     6  H    0.253939
     7  C    0.775350
     8  O   -0.596726
     9  H    0.246084
    10  H    0.252333
    11  C   -0.492737
    12  S    0.286091
    13  C    0.084602
    14  N   -0.376562
    15  N   -0.934279
    16  H    0.182745
    17  H    0.438923
    18  H    0.399403
 Sum of Mulliken atomic charges =   0.00000

 Dipole moment (field-independent basis, Debye):
    X=              4.1349    Y=             -2.0462    Z=              1.5087  Tot=              4.8539
 Quadrupole moment (field-independent basis, Debye-Ang):
   XX=            -89.2544   YY=            -79.2468   ZZ=            -67.5835
   XY=              6.4323   XZ=              2.5749   YZ=             -8.6391

 Normal termination of Gaussian 09 at Wed Feb 19 12:48:33 2020.
