 Gaussian 09, Revision A.02,
 Gaussian 09:  EM64L-G09RevA.02 11-Jun-2009

 ----------------------------------------------
 #P opt=(,maxcycle=400) HF/6-31G* MaxDisk=100GB
 ----------------------------------------------

 -------------------------------------------------------------------
 ModifiedRes Rotatable Bond Optimization on g2-node38.bme.utexas.edu
 -------------------------------------------------------------------
 Symbolic Z-matrix:
 Charge =  0 Multiplicity = 1

 SCF Done:  E(RHF) =  -903.982205676     A.U. after   16 cycles
 SCF Done:  E(RHF) =  -903.998018198     A.U. after   17 cycles
 SCF Done:  E(RHF) =  -903.997650221     A.U. after   16 cycles
 SCF Done:  E(RHF) =  -904.000147906     A.U. after   13 cycles
 SCF Done:  E(RHF) =  -904.001959639     A.U. after   17 cycles
 SCF Done:  E(RHF) =  -904.005408909     A.U. after   16 cycles
 SCF Done:  E(RHF) =  -904.008256964     A.U. after   14 cycles
 SCF Done:  E(RHF) =  -904.011497815     A.U. after   15 cycles
 SCF Done:  E(RHF) =  -904.012728258     A.U. after   17 cycles
 SCF Done:  E(RHF) =  -904.012967804     A.U. after   14 cycles
 SCF Done:  E(RHF) =  -904.013118789     A.U. after   14 cycles
 SCF Done:  E(RHF) =  -904.013450868     A.U. after   13 cycles
 SCF Done:  E(RHF) =  -904.013523224     A.U. after   13 cycles
 SCF Done:  E(RHF) =  -904.013455220     A.U. after   14 cycles
 SCF Done:  E(RHF) =  -904.013622535     A.U. after   13 cycles
 SCF Done:  E(RHF) =  -904.013631232     A.U. after   11 cycles
 SCF Done:  E(RHF) =  -904.013635563     A.U. after   11 cycles
 SCF Done:  E(RHF) =  -904.013637293     A.U. after   10 cycles
 SCF Done:  E(RHF) =  -904.013638207     A.U. after   10 cycles
 SCF Done:  E(RHF) =  -904.013638340     A.U. after    9 cycles
 Optimization completed.
    -- Stationary point found.

                         Standard orientation:
 ---------------------------------------------------------------------
 Center     Atomic      Atomic             Coordinates (Angstroms)
 Number     Number       Type             X           Y           Z
 ---------------------------------------------------------------------
      1          6           0        1.736090    1.953465   -0.365283
      2          8           0        2.750488    1.827716    0.262853
      3          7           0        0.683281    1.118630   -0.289015
      4          1           0       -0.058558    1.227985   -0.944964
      5          6           0        0.655164   -0.023582    0.603265
      6          1           0        1.235370    0.248594    1.476804
      7          6           0        1.301071   -1.271012   -0.016105
      8          8           0        0.654815   -2.265777   -0.210377
      9          1           0       -0.738357   -1.180359    1.744490
     10          1           0       -1.171047    0.517047    1.598474
     11          6           0       -0.760319   -0.333798    1.077097
     12         16           0       -1.913238   -0.777053   -0.287990
     13          6           0       -3.012122    0.528229   -0.150921
     14          7           0       -3.746614    1.395111   -0.091365
     15          7           0        2.607210   -1.157620   -0.294053
     16          1           0        1.582739    2.774404   -1.062384
     17          1           0        3.118608   -0.326644   -0.089956
     18          1           0        3.074195   -1.936360   -0.701730
 ---------------------------------------------------------------------

 The electronic state is 1-A.
 Alpha  occ. eigenvalues --  -92.00888 -20.56492 -20.55081 -15.62678 -15.59759
 Alpha  occ. eigenvalues --  -15.58734 -11.38089 -11.37287 -11.31852 -11.30460
 Alpha  occ. eigenvalues --  -11.29877  -9.01708  -6.69989  -6.69800  -6.69608
 Alpha  occ. eigenvalues --   -1.42943  -1.41664  -1.28166  -1.24222  -1.23243
 Alpha  occ. eigenvalues --   -1.11855  -1.03076  -0.91571  -0.86698  -0.81413
 Alpha  occ. eigenvalues --   -0.77454  -0.75567  -0.71203  -0.69783  -0.66922
 Alpha  occ. eigenvalues --   -0.64078  -0.63059  -0.60508  -0.59499  -0.58659
 Alpha  occ. eigenvalues --   -0.57500  -0.55687  -0.52798  -0.52569  -0.47580
 Alpha  occ. eigenvalues --   -0.46024  -0.45694  -0.42896  -0.41552  -0.38587
 Alpha virt. eigenvalues --    0.13439   0.15896   0.18658   0.19699   0.20242
 Alpha virt. eigenvalues --    0.22229   0.23091   0.23824   0.24873   0.27934
 Alpha virt. eigenvalues --    0.28426   0.30353   0.32400   0.34270   0.36977

 Mulliken atomic charges:
              1
     1  C    0.519783
     2  O   -0.587872
     3  N   -0.765639
     4  H    0.419871
     5  C   -0.081413
     6  H    0.251387
     7  C    0.780316
     8  O   -0.607488
     9  H    0.251973
    10  H    0.248116
    11  C   -0.501447
    12  S    0.307864
    13  C    0.066445
    14  N   -0.391702
    15  N   -0.938503
    16  H    0.183900
    17  H    0.442393
    18  H    0.402014
 Sum of Mulliken atomic charges =   0.00000

 Dipole moment (field-independent basis, Debye):
    X=              3.1424    Y=              0.2652    Z=             -0.0468  Tot=              3.1539
 Quadrupole moment (field-independent basis, Debye-Ang):
   XX=            -86.9895   YY=            -79.3945   ZZ=            -65.8432
   XY=              0.1879   XZ=             -4.6251   YZ=             -4.7018

 Normal termination of Gaussian 09 at Wed Feb 19 12:38:11 2020.
