 Gaussian 09, Revision A.02,
 Gaussian 09:  EM64L-G09RevA.02 11-Jun-2009

 ----------------------------------------------------------------------
 #P MP2/6-311++G** SP SCF=(qc,maxcycle=800) Guess=Indo MaxDisk=100GB Po
 p=NBORead
 ----------------------------------------------------------------------

 ---------------------------------------------------------------------
 ModifiedRes Rotatable Bond SP Calculation on g2-node38.bme.utexas.edu
 ---------------------------------------------------------------------
 Symbolic Z-matrix:
 Charge =  0 Multiplicity = 1

                         Standard orientation:
 ---------------------------------------------------------------------
 Center     Atomic      Atomic             Coordinates (Angstroms)
 Number     Number       Type             X           Y           Z
 ---------------------------------------------------------------------
      1          6           0        2.725363   -1.464273    0.335180
      2          8           0        3.118011   -1.168351   -0.799099
      3          7           0        1.542259   -1.011670    0.841862
      4          1           0        1.391073   -1.077987    1.844170
      5          6           0        0.633244   -0.171224    0.045665
      6          1           0        0.747022   -0.489459   -1.001204
      7          6           0        1.041278    1.310380    0.161365
      8          8           0        0.520037    2.013173    1.028342
      9          1           0       -0.926147   -1.394817    0.934219
     10          1           0       -1.064284    0.338854    1.304298
     11          6           0       -0.819096   -0.388987    0.523672
     12         16           0       -1.967553   -0.152844   -0.895300
     13          6           0       -3.446791   -0.268174   -0.066464
     14          7           0       -4.491039   -0.345404    0.489282
     15          7           0        1.994744    1.724811   -0.713841
     16          1           0        3.311254   -2.090618    1.025902
     17          1           0        2.499195    1.029961   -1.258094
     18          1           0        2.292606    2.690517   -0.676070
 ---------------------------------------------------------------------

 SCF Done:  E(RHF) =  -904.158037097     a.u. after   11 cycles
 E2 =    -0.1756381742D+01 EUMP2 =    -0.90591441883828D+03

 The electronic state is 1-A.
 Alpha  occ. eigenvalues --  -92.02741 -20.56571 -20.54715 -15.63851 -15.60693
 Alpha  occ. eigenvalues --  -15.59890 -11.39757 -11.38426 -11.33492 -11.31425
 Alpha  occ. eigenvalues --  -11.30997  -9.02874  -6.71134  -6.70950  -6.70791
 Alpha  occ. eigenvalues --   -1.41764  -1.40237  -1.27865  -1.23307  -1.22552
 Alpha  occ. eigenvalues --   -1.12191  -1.03329  -0.91789  -0.87167  -0.81589
 Alpha  occ. eigenvalues --   -0.76976  -0.75229  -0.72038  -0.70688  -0.66844
 Alpha  occ. eigenvalues --   -0.64666  -0.63169  -0.61150  -0.58432  -0.58021
 Alpha  occ. eigenvalues --   -0.57104  -0.56377  -0.53355  -0.51559  -0.47711
 Alpha  occ. eigenvalues --   -0.47278  -0.45427  -0.43515  -0.42467  -0.38919
 Alpha virt. eigenvalues --    0.02469   0.04222   0.04977   0.05490   0.07290
 Alpha virt. eigenvalues --    0.07447   0.08563   0.08777   0.09224   0.10155
 Alpha virt. eigenvalues --    0.11325   0.11943   0.12242   0.12956   0.13258

 Mulliken atomic charges:
              1
     1  C    0.298820
     2  O   -0.448207
     3  N   -0.144189
     4  H    0.340493
     5  C    0.090055
     6  H    0.343312
     7  C    0.044093
     8  O   -0.413345
     9  H    0.231552
    10  H    0.258537
    11  C   -0.766062
    12  S    0.311658
    13  C   -0.348920
    14  N   -0.176307
    15  N   -0.431035
    16  H    0.155996
    17  H    0.307150
    18  H    0.346399
 Sum of Mulliken atomic charges =   0.00000

 Dipole moment (field-independent basis, Debye):
    X=              5.0850    Y=             -1.9090    Z=              0.6325  Tot=              5.4683
 Quadrupole moment (field-independent basis, Debye-Ang):
   XX=            -95.0353   YY=            -72.8048   ZZ=            -70.6767
   XY=              1.5478   XZ=             10.1486   YZ=            -11.5860

 Normal termination of Gaussian 09 at Wed Feb 19 12:41:37 2020.
