 Gaussian 09, Revision A.02,
 Gaussian 09:  EM64L-G09RevA.02 11-Jun-2009

 ----------------------------------------------------------------------
 #P MP2/6-311++G** SP SCF=(qc,maxcycle=800) Guess=Indo MaxDisk=100GB Po
 p=NBORead
 ----------------------------------------------------------------------

 ---------------------------------------------------------------------
 ModifiedRes Rotatable Bond SP Calculation on g2-node38.bme.utexas.edu
 ---------------------------------------------------------------------
 Symbolic Z-matrix:
 Charge =  0 Multiplicity = 1

                         Standard orientation:
 ---------------------------------------------------------------------
 Center     Atomic      Atomic             Coordinates (Angstroms)
 Number     Number       Type             X           Y           Z
 ---------------------------------------------------------------------
      1          6           0       -1.427311    1.993307    0.583118
      2          8           0       -2.278609    2.099978   -0.306976
      3          7           0       -0.633096    0.891818    0.706448
      4          1           0       -0.026904    0.823673    1.519694
      5          6           0       -0.623722   -0.202303   -0.280855
      6          1           0       -0.856705    0.238983   -1.261059
      7          6           0       -1.717051   -1.238104    0.055320
      8          8           0       -1.395941   -2.344541    0.492033
      9          1           0        0.999197   -1.300295    0.639937
     10          1           0        0.716614   -1.708444   -1.057784
     11          6           0        0.756918   -0.885820   -0.340546
     12         16           0        2.039187    0.294620   -0.948597
     13          6           0        3.233275    0.042484    0.237939
     14          7           0        4.027944   -0.118848    1.102569
     15          7           0       -2.996056   -0.838384   -0.174140
     16          1           0       -1.267170    2.764068    1.353099
     17          1           0       -3.172399    0.109083   -0.499712
     18          1           0       -3.747427   -1.483969    0.028934
 ---------------------------------------------------------------------

 SCF Done:  E(RHF) =  -904.160752938     a.u. after   12 cycles
 E2 =    -0.1756333178D+01 EUMP2 =    -0.90591708611590D+03

 The electronic state is 1-A.
 Alpha  occ. eigenvalues --  -92.03139 -20.56242 -20.54619 -15.63479 -15.60309
 Alpha  occ. eigenvalues --  -15.60307 -11.39479 -11.38417 -11.33453 -11.32003
 Alpha  occ. eigenvalues --  -11.31557  -9.03275  -6.71531  -6.71347  -6.71200
 Alpha  occ. eigenvalues --   -1.41500  -1.40110  -1.27583  -1.23096  -1.22895
 Alpha  occ. eigenvalues --   -1.12261  -1.03709  -0.91857  -0.86982  -0.81241
 Alpha  occ. eigenvalues --   -0.76597  -0.75573  -0.72147  -0.69686  -0.67575
 Alpha  occ. eigenvalues --   -0.64103  -0.63319  -0.60968  -0.59187  -0.58225
 Alpha  occ. eigenvalues --   -0.57045  -0.56605  -0.53283  -0.52502  -0.47570
 Alpha  occ. eigenvalues --   -0.46748  -0.46144  -0.43131  -0.42285  -0.39399
 Alpha virt. eigenvalues --    0.03149   0.04028   0.05010   0.05811   0.06920
 Alpha virt. eigenvalues --    0.07288   0.08740   0.08897   0.09491   0.10347
 Alpha virt. eigenvalues --    0.10808   0.11690   0.12475   0.12941   0.13387

 Mulliken atomic charges:
              1
     1  C    0.284305
     2  O   -0.461441
     3  N   -0.089311
     4  H    0.349419
     5  C   -0.495013
     6  H    0.267525
     7  C    0.316201
     8  O   -0.404085
     9  H    0.250144
    10  H    0.269627
    11  C   -0.511604
    12  S    0.344473
    13  C   -0.272345
    14  N   -0.182479
    15  N   -0.515744
    16  H    0.160261
    17  H    0.318619
    18  H    0.371449
 Sum of Mulliken atomic charges =   0.00000

 Dipole moment (field-independent basis, Debye):
    X=             -2.8292    Y=              1.5765    Z=             -0.5836  Tot=              3.2909
 Quadrupole moment (field-independent basis, Debye-Ang):
   XX=            -87.6933   YY=            -81.5947   ZZ=            -70.6372
   XY=              3.9068   XZ=             -7.9124   YZ=              9.0424

 Normal termination of Gaussian 09 at Wed Feb 19 13:05:55 2020.
