 Gaussian 09, Revision A.02,
 Gaussian 09:  EM64L-G09RevA.02 11-Jun-2009

 ----------------------------------------------
 #P opt=(,maxcycle=400) HF/6-31G* MaxDisk=100GB
 ----------------------------------------------

 -------------------------------------------------------------------
 ModifiedRes Rotatable Bond Optimization on g2-node38.bme.utexas.edu
 -------------------------------------------------------------------
 Symbolic Z-matrix:
 Charge =  0 Multiplicity = 1

 SCF Done:  E(RHF) =  -903.996011744     A.U. after   16 cycles
 SCF Done:  E(RHF) =  -904.009639274     A.U. after   14 cycles
 SCF Done:  E(RHF) =  -904.010209615     A.U. after   16 cycles
 SCF Done:  E(RHF) =  -904.011222308     A.U. after   15 cycles
 SCF Done:  E(RHF) =  -904.011329548     A.U. after   14 cycles
 SCF Done:  E(RHF) =  -904.011320381     A.U. after   13 cycles
 SCF Done:  E(RHF) =  -904.011475112     A.U. after   13 cycles
 SCF Done:  E(RHF) =  -904.011475514     A.U. after   11 cycles
 SCF Done:  E(RHF) =  -904.011480682     A.U. after   11 cycles
 SCF Done:  E(RHF) =  -904.011480954     A.U. after    9 cycles
 SCF Done:  E(RHF) =  -904.011481284     A.U. after   10 cycles
 SCF Done:  E(RHF) =  -904.011481453     A.U. after   10 cycles
 SCF Done:  E(RHF) =  -904.011481497     A.U. after    9 cycles
 Optimization completed.
    -- Stationary point found.

                         Standard orientation:
 ---------------------------------------------------------------------
 Center     Atomic      Atomic             Coordinates (Angstroms)
 Number     Number       Type             X           Y           Z
 ---------------------------------------------------------------------
      1          6           0        1.915696   -1.808588    0.474221
      2          8           0        2.538798   -1.848774   -0.548195
      3          7           0        0.972492   -0.886700    0.757391
      4          1           0        0.597428   -0.860099    1.680138
      5          6           0        0.605083    0.165576   -0.176029
      6          1           0        0.716292   -0.244922   -1.170274
      7          6           0        1.544230    1.374313   -0.029508
      8          8           0        1.190966    2.377947    0.522668
      9          1           0       -0.966589    1.028284    1.031929
     10          1           0       -1.092896    1.372216   -0.677612
     11          6           0       -0.834719    0.613928    0.044605
     12         16           0       -1.956413   -0.821458   -0.176737
     13          6           0       -3.448475    0.002074   -0.102287
     14          7           0       -4.456022    0.527079   -0.054051
     15          7           0        2.763275    1.195668   -0.566402
     16          1           0        2.060244   -2.533049    1.272798
     17          1           0        3.054771    0.305756   -0.908371
     18          1           0        3.446147    1.905622   -0.421178
 ---------------------------------------------------------------------

 The electronic state is 1-A.
 Alpha  occ. eigenvalues --  -92.01088 -20.56945 -20.54873 -15.63317 -15.59693
 Alpha  occ. eigenvalues --  -15.58906 -11.38515 -11.37293 -11.32194 -11.30400
 Alpha  occ. eigenvalues --  -11.30070  -9.01997  -6.70305  -6.70115  -6.69911
 Alpha  occ. eigenvalues --   -1.43378  -1.41614  -1.28588  -1.24297  -1.23199
 Alpha  occ. eigenvalues --   -1.12243  -1.03303  -0.91356  -0.87053  -0.81773
 Alpha  occ. eigenvalues --   -0.76979  -0.75845  -0.71455  -0.69984  -0.67174
 Alpha  occ. eigenvalues --   -0.64517  -0.62829  -0.62084  -0.58995  -0.58410
 Alpha  occ. eigenvalues --   -0.57098  -0.56107  -0.53405  -0.52337  -0.47404
 Alpha  occ. eigenvalues --   -0.46508  -0.46142  -0.42868  -0.41765  -0.38695
 Alpha virt. eigenvalues --    0.12894   0.15864   0.17637   0.19445   0.20878
 Alpha virt. eigenvalues --    0.21184   0.22430   0.23472   0.24298   0.27395
 Alpha virt. eigenvalues --    0.28397   0.29670   0.32295   0.34514   0.37791

 Mulliken atomic charges:
              1
     1  C    0.521819
     2  O   -0.579158
     3  N   -0.768331
     4  H    0.406867
     5  C   -0.100390
     6  H    0.253913
     7  C    0.775455
     8  O   -0.596805
     9  H    0.246025
    10  H    0.252416
    11  C   -0.492742
    12  S    0.286030
    13  C    0.084625
    14  N   -0.376547
    15  N   -0.934347
    16  H    0.182737
    17  H    0.438998
    18  H    0.399435
 Sum of Mulliken atomic charges =   0.00000

 Dipole moment (field-independent basis, Debye):
    X=              4.1316    Y=             -2.0483    Z=              1.5086  Tot=              4.8520
 Quadrupole moment (field-independent basis, Debye-Ang):
   XX=            -89.2630   YY=            -79.2465   ZZ=            -67.5813
   XY=              6.4357   XZ=              2.5730   YZ=             -8.6394

 Normal termination of Gaussian 09 at Wed Feb 19 12:59:59 2020.
