 Gaussian 09, Revision A.02,
 Gaussian 09:  EM64L-G09RevA.02 11-Jun-2009

 ----------------------------------------------
 #P opt=(,maxcycle=400) HF/6-31G* MaxDisk=100GB
 ----------------------------------------------

 -------------------------------------------------------------------
 ModifiedRes Rotatable Bond Optimization on g2-node38.bme.utexas.edu
 -------------------------------------------------------------------
 Symbolic Z-matrix:
 Charge =  0 Multiplicity = 1

 SCF Done:  E(RHF) =  -903.986427608     A.U. after   16 cycles
 SCF Done:  E(RHF) =  -904.001494927     A.U. after   14 cycles
 SCF Done:  E(RHF) =  -904.003947929     A.U. after   15 cycles
 SCF Done:  E(RHF) =  -904.004622791     A.U. after   16 cycles
 SCF Done:  E(RHF) =  -904.006113671     A.U. after   13 cycles
 SCF Done:  E(RHF) =  -904.006477211     A.U. after   13 cycles
 SCF Done:  E(RHF) =  -904.006624194     A.U. after   13 cycles
 SCF Done:  E(RHF) =  -904.006968677     A.U. after   13 cycles
 SCF Done:  E(RHF) =  -904.007204044     A.U. after   13 cycles
 SCF Done:  E(RHF) =  -904.007898268     A.U. after   16 cycles
 SCF Done:  E(RHF) =  -904.010819089     A.U. after   13 cycles
 SCF Done:  E(RHF) =  -904.011172730     A.U. after   13 cycles
 SCF Done:  E(RHF) =  -904.011350939     A.U. after   13 cycles
 SCF Done:  E(RHF) =  -904.011403786     A.U. after   13 cycles
 SCF Done:  E(RHF) =  -904.011432498     A.U. after   12 cycles
 SCF Done:  E(RHF) =  -904.011455858     A.U. after   12 cycles
 SCF Done:  E(RHF) =  -904.011476027     A.U. after   12 cycles
 SCF Done:  E(RHF) =  -904.011480824     A.U. after   12 cycles
 SCF Done:  E(RHF) =  -904.011481442     A.U. after   10 cycles
 SCF Done:  E(RHF) =  -904.011481514     A.U. after    9 cycles
 Optimization completed.
    -- Stationary point found.

                         Standard orientation:
 ---------------------------------------------------------------------
 Center     Atomic      Atomic             Coordinates (Angstroms)
 Number     Number       Type             X           Y           Z
 ---------------------------------------------------------------------
      1          6           0        1.915403   -1.808763    0.474453
      2          8           0        2.538824   -1.849088   -0.547793
      3          7           0        0.972552   -0.886534    0.757476
      4          1           0        0.596462   -0.860512    1.679816
      5          6           0        0.605179    0.165583   -0.176149
      6          1           0        0.716608   -0.244964   -1.170348
      7          6           0        1.544263    1.374368   -0.029475
      8          8           0        1.191024    2.377844    0.522975
      9          1           0       -0.966687    1.028399    1.031469
     10          1           0       -1.092717    1.372187   -0.678122
     11          6           0       -0.834679    0.613941    0.044204
     12         16           0       -1.956379   -0.821394   -0.177219
     13          6           0       -3.448474    0.002001   -0.102091
     14          7           0       -4.455914    0.527179   -0.053393
     15          7           0        2.763207    1.195954   -0.566721
     16          1           0        2.059471   -2.533350    1.272988
     17          1           0        3.054864    0.305874   -0.908133
     18          1           0        3.446209    1.905649   -0.420814
 ---------------------------------------------------------------------

 The electronic state is 1-A.
 Alpha  occ. eigenvalues --  -92.01090 -20.56943 -20.54874 -15.63318 -15.59693
 Alpha  occ. eigenvalues --  -15.58908 -11.38514 -11.37293 -11.32195 -11.30401
 Alpha  occ. eigenvalues --  -11.30072  -9.01999  -6.70307  -6.70117  -6.69913
 Alpha  occ. eigenvalues --   -1.43375  -1.41615  -1.28589  -1.24299  -1.23199
 Alpha  occ. eigenvalues --   -1.12245  -1.03305  -0.91357  -0.87053  -0.81772
 Alpha  occ. eigenvalues --   -0.76978  -0.75843  -0.71457  -0.69983  -0.67175
 Alpha  occ. eigenvalues --   -0.64515  -0.62831  -0.62085  -0.58994  -0.58408
 Alpha  occ. eigenvalues --   -0.57100  -0.56108  -0.53406  -0.52338  -0.47402
 Alpha  occ. eigenvalues --   -0.46508  -0.46143  -0.42870  -0.41764  -0.38697
 Alpha virt. eigenvalues --    0.12893   0.15867   0.17635   0.19443   0.20874
 Alpha virt. eigenvalues --    0.21182   0.22430   0.23472   0.24297   0.27396
 Alpha virt. eigenvalues --    0.28398   0.29670   0.32293   0.34511   0.37790

 Mulliken atomic charges:
              1
     1  C    0.521808
     2  O   -0.579187
     3  N   -0.768338
     4  H    0.406891
     5  C   -0.100366
     6  H    0.253917
     7  C    0.775447
     8  O   -0.596772
     9  H    0.246055
    10  H    0.252418
    11  C   -0.492796
    12  S    0.285995
    13  C    0.084632
    14  N   -0.376524
    15  N   -0.934275
    16  H    0.182728
    17  H    0.438953
    18  H    0.399414
 Sum of Mulliken atomic charges =   0.00000

 Dipole moment (field-independent basis, Debye):
    X=              4.1282    Y=             -2.0490    Z=              1.5082  Tot=              4.8492
 Quadrupole moment (field-independent basis, Debye-Ang):
   XX=            -89.2636   YY=            -79.2462   ZZ=            -67.5862
   XY=              6.4396   XZ=              2.5786   YZ=             -8.6399

 Normal termination of Gaussian 09 at Wed Feb 19 12:48:43 2020.
