 Gaussian 09, Revision A.02,
 Gaussian 09:  EM64L-G09RevA.02 11-Jun-2009

 ----------------------------------------------
 #P opt=(,maxcycle=400) HF/6-31G* MaxDisk=100GB
 ----------------------------------------------

 -------------------------------------------------------------------
 ModifiedRes Rotatable Bond Optimization on g2-node38.bme.utexas.edu
 -------------------------------------------------------------------
 Symbolic Z-matrix:
 Charge =  0 Multiplicity = 1

 SCF Done:  E(RHF) =  -903.994198226     A.U. after   16 cycles
 SCF Done:  E(RHF) =  -904.008895667     A.U. after   14 cycles
 SCF Done:  E(RHF) =  -904.009321983     A.U. after   15 cycles
 SCF Done:  E(RHF) =  -904.010216186     A.U. after   13 cycles
 SCF Done:  E(RHF) =  -904.010798614     A.U. after   14 cycles
 SCF Done:  E(RHF) =  -904.010905255     A.U. after   13 cycles
 SCF Done:  E(RHF) =  -904.011058321     A.U. after   12 cycles
 SCF Done:  E(RHF) =  -904.011128600     A.U. after   13 cycles
 SCF Done:  E(RHF) =  -904.011315393     A.U. after   13 cycles
 SCF Done:  E(RHF) =  -904.011427530     A.U. after   12 cycles
 SCF Done:  E(RHF) =  -904.011465923     A.U. after   12 cycles
 SCF Done:  E(RHF) =  -904.011476747     A.U. after   12 cycles
 SCF Done:  E(RHF) =  -904.011480121     A.U. after   11 cycles
 SCF Done:  E(RHF) =  -904.011481108     A.U. after   10 cycles
 SCF Done:  E(RHF) =  -904.011481346     A.U. after    9 cycles
 SCF Done:  E(RHF) =  -904.011481467     A.U. after   10 cycles
 SCF Done:  E(RHF) =  -904.011481515     A.U. after    9 cycles
 Optimization completed.
    -- Stationary point found.

                         Standard orientation:
 ---------------------------------------------------------------------
 Center     Atomic      Atomic             Coordinates (Angstroms)
 Number     Number       Type             X           Y           Z
 ---------------------------------------------------------------------
      1          6           0        1.915382   -1.808744    0.474507
      2          8           0        2.538870   -1.848925   -0.547682
      3          7           0        0.972418   -0.886569    0.757492
      4          1           0        0.596363   -0.860536    1.679846
      5          6           0        0.605160    0.165559   -0.176141
      6          1           0        0.716580   -0.245020   -1.170330
      7          6           0        1.544368    1.374284   -0.029476
      8          8           0        1.191240    2.377763    0.523093
      9          1           0       -0.966713    1.028480    1.031374
     10          1           0       -1.092625    1.372234   -0.678236
     11          6           0       -0.834671    0.614000    0.044126
     12         16           0       -1.956413   -0.821313   -0.177351
     13          6           0       -3.448491    0.002111   -0.102033
     14          7           0       -4.456027    0.527097   -0.053241
     15          7           0        2.763203    1.195783   -0.566821
     16          1           0        2.059413   -2.533378    1.273022
     17          1           0        3.054759    0.305695   -0.908294
     18          1           0        3.446304    1.905394   -0.420957
 ---------------------------------------------------------------------

 The electronic state is 1-A.
 Alpha  occ. eigenvalues --  -92.01090 -20.56944 -20.54872 -15.63317 -15.59693
 Alpha  occ. eigenvalues --  -15.58907 -11.38515 -11.37293 -11.32195 -11.30401
 Alpha  occ. eigenvalues --  -11.30072  -9.01998  -6.70307  -6.70117  -6.69913
 Alpha  occ. eigenvalues --   -1.43377  -1.41613  -1.28588  -1.24298  -1.23200
 Alpha  occ. eigenvalues --   -1.12245  -1.03304  -0.91357  -0.87053  -0.81772
 Alpha  occ. eigenvalues --   -0.76978  -0.75844  -0.71458  -0.69983  -0.67175
 Alpha  occ. eigenvalues --   -0.64517  -0.62830  -0.62084  -0.58995  -0.58407
 Alpha  occ. eigenvalues --   -0.57100  -0.56108  -0.53406  -0.52338  -0.47402
 Alpha  occ. eigenvalues --   -0.46509  -0.46143  -0.42869  -0.41763  -0.38697
 Alpha virt. eigenvalues --    0.12893   0.15867   0.17636   0.19443   0.20875
 Alpha virt. eigenvalues --    0.21183   0.22429   0.23471   0.24298   0.27396
 Alpha virt. eigenvalues --    0.28398   0.29670   0.32294   0.34511   0.37791

 Mulliken atomic charges:
              1
     1  C    0.521810
     2  O   -0.579173
     3  N   -0.768345
     4  H    0.406888
     5  C   -0.100363
     6  H    0.253899
     7  C    0.775444
     8  O   -0.596809
     9  H    0.246058
    10  H    0.252409
    11  C   -0.492788
    12  S    0.285999
    13  C    0.084634
    14  N   -0.376531
    15  N   -0.934259
    16  H    0.182735
    17  H    0.438977
    18  H    0.399413
 Sum of Mulliken atomic charges =   0.00000

 Dipole moment (field-independent basis, Debye):
    X=              4.1286    Y=             -2.0497    Z=              1.5072  Tot=              4.8496
 Quadrupole moment (field-independent basis, Debye-Ang):
   XX=            -89.2649   YY=            -79.2449   ZZ=            -67.5856
   XY=              6.4360   XZ=              2.5775   YZ=             -8.6404

 Normal termination of Gaussian 09 at Wed Feb 19 12:47:35 2020.
