 Gaussian 09, Revision A.02,
 Gaussian 09:  EM64L-G09RevA.02 11-Jun-2009

 ----------------------------------------------
 #P opt=(,maxcycle=400) HF/6-31G* MaxDisk=100GB
 ----------------------------------------------

 -------------------------------------------------------------------
 ModifiedRes Rotatable Bond Optimization on g2-node38.bme.utexas.edu
 -------------------------------------------------------------------
 Symbolic Z-matrix:
 Charge =  0 Multiplicity = 1

 SCF Done:  E(RHF) =  -903.979623593     A.U. after   16 cycles
 SCF Done:  E(RHF) =  -903.995672148     A.U. after   15 cycles
 SCF Done:  E(RHF) =  -903.999077514     A.U. after   16 cycles
 SCF Done:  E(RHF) =  -904.000758097     A.U. after   17 cycles
 SCF Done:  E(RHF) =  -904.003666372     A.U. after   15 cycles
 SCF Done:  E(RHF) =  -904.007631750     A.U. after   14 cycles
 SCF Done:  E(RHF) =  -904.009080678     A.U. after   15 cycles
 SCF Done:  E(RHF) =  -904.010307354     A.U. after   13 cycles
 SCF Done:  E(RHF) =  -904.011050207     A.U. after   14 cycles
 SCF Done:  E(RHF) =  -904.011563140     A.U. after   15 cycles
 SCF Done:  E(RHF) =  -904.012250595     A.U. after   14 cycles
 SCF Done:  E(RHF) =  -904.012308985     A.U. after   13 cycles
 SCF Done:  E(RHF) =  -904.012337412     A.U. after   12 cycles
 SCF Done:  E(RHF) =  -904.012349977     A.U. after   12 cycles
 SCF Done:  E(RHF) =  -904.012366327     A.U. after   17 cycles
 SCF Done:  E(RHF) =  -904.012375634     A.U. after   11 cycles
 SCF Done:  E(RHF) =  -904.012376591     A.U. after   18 cycles
 SCF Done:  E(RHF) =  -904.012376730     A.U. after   10 cycles
 SCF Done:  E(RHF) =  -904.012376765     A.U. after    9 cycles
 SCF Done:  E(RHF) =  -904.012376779     A.U. after    8 cycles
 Optimization completed.
    -- Stationary point found.

                         Standard orientation:
 ---------------------------------------------------------------------
 Center     Atomic      Atomic             Coordinates (Angstroms)
 Number     Number       Type             X           Y           Z
 ---------------------------------------------------------------------
      1          6           0        2.486471   -1.408742    0.502494
      2          8           0        2.563558   -1.674268   -0.662339
      3          7           0        1.511772   -0.654229    1.052843
      4          1           0        1.621602   -0.357797    1.997565
      5          6           0        0.451045   -0.060823    0.253484
      6          1           0        0.247250   -0.748916   -0.554133
      7          6           0        0.921766    1.287618   -0.311625
      8          8           0        0.625476    2.321774    0.221670
      9          1           0       -1.022099   -0.797731    1.644465
     10          1           0       -0.633820    0.911736    1.837328
     11          6           0       -0.789202    0.117803    1.121062
     12         16           0       -2.262026    0.640834    0.176312
     13          6           0       -2.729955   -0.877415   -0.452760
     14          7           0       -3.052084   -1.880573   -0.881357
     15          7           0        1.692695    1.196711   -1.407146
     16          1           0        3.210130   -1.770224    1.230608
     17          1           0        2.034965    0.315998   -1.724481
     18          1           0        2.114693    2.029537   -1.753299
 ---------------------------------------------------------------------

 The electronic state is 1-A.
 Alpha  occ. eigenvalues --  -92.00864 -20.56458 -20.54496 -15.62795 -15.59433
 Alpha  occ. eigenvalues --  -15.58746 -11.38036 -11.36828 -11.31373 -11.30272
 Alpha  occ. eigenvalues --  -11.29858  -9.01735  -6.70029  -6.69843  -6.69641
 Alpha  occ. eigenvalues --   -1.42890  -1.41177  -1.27995  -1.24171  -1.22913
 Alpha  occ. eigenvalues --   -1.12156  -1.02501  -0.91626  -0.86257  -0.81383
 Alpha  occ. eigenvalues --   -0.77043  -0.75258  -0.70998  -0.69362  -0.67133
 Alpha  occ. eigenvalues --   -0.63758  -0.62945  -0.61649  -0.58417  -0.57546
 Alpha  occ. eigenvalues --   -0.56719  -0.55815  -0.53263  -0.52323  -0.47143
 Alpha  occ. eigenvalues --   -0.46744  -0.45118  -0.42620  -0.41421  -0.38526
 Alpha virt. eigenvalues --    0.13038   0.16241   0.18969   0.19917   0.19982
 Alpha virt. eigenvalues --    0.21905   0.23450   0.23759   0.24125   0.27340
 Alpha virt. eigenvalues --    0.29127   0.30641   0.31367   0.35215   0.37766

 Mulliken atomic charges:
              1
     1  C    0.520988
     2  O   -0.575366
     3  N   -0.768061
     4  H    0.399311
     5  C   -0.066800
     6  H    0.257272
     7  C    0.775400
     8  O   -0.611112
     9  H    0.242456
    10  H    0.251653
    11  C   -0.522248
    12  S    0.311105
    13  C    0.084188
    14  N   -0.382753
    15  N   -0.926941
    16  H    0.177525
    17  H    0.434829
    18  H    0.398553
 Sum of Mulliken atomic charges =   0.00000

 Dipole moment (field-independent basis, Debye):
    X=              3.6610    Y=              0.8522    Z=              3.5252  Tot=              5.1533
 Quadrupole moment (field-independent basis, Debye-Ang):
   XX=            -74.8508   YY=            -86.0792   ZZ=            -63.7260
   XY=             -3.9846   XZ=              0.4444   YZ=            -10.1410

 Normal termination of Gaussian 09 at Wed Feb 19 12:36:14 2020.
