 Gaussian 09, Revision A.02,
 Gaussian 09:  EM64L-G09RevA.02 11-Jun-2009

 ----------------------------------------------------------------------
 #P MP2/6-311++G** SP SCF=(qc,maxcycle=800) Guess=Indo MaxDisk=100GB Po
 p=NBORead
 ----------------------------------------------------------------------

 ---------------------------------------------------------------------
 ModifiedRes Rotatable Bond SP Calculation on g2-node38.bme.utexas.edu
 ---------------------------------------------------------------------
 Symbolic Z-matrix:
 Charge =  0 Multiplicity = 1

                         Standard orientation:
 ---------------------------------------------------------------------
 Center     Atomic      Atomic             Coordinates (Angstroms)
 Number     Number       Type             X           Y           Z
 ---------------------------------------------------------------------
      1          6           0       -0.520181    2.029086    0.579841
      2          8           0       -1.133423    2.402158   -0.428695
      3          7           0       -0.239643    0.714806    0.818881
      4          1           0        0.139070    0.458918    1.725725
      5          6           0       -0.490986   -0.334630   -0.186017
      6          1           0       -0.340103    0.115993   -1.178365
      7          6           0       -1.953152   -0.812039   -0.068895
      8          8           0       -2.194767   -1.883126    0.492324
      9          1           0        0.305671   -1.967166    0.981229
     10          1           0        0.169930   -2.270001   -0.776603
     11          6           0        0.464596   -1.544725   -0.015114
     12         16           0        2.282966   -1.214976   -0.141857
     13          6           0        2.495574    0.476184   -0.154421
     14          7           0        2.627456    1.654766   -0.181089
     15          7           0       -2.888778    0.011653   -0.609255
     16          1           0       -0.183991    2.722051    1.366405
     17          1           0       -2.598447    0.931483   -0.933455
     18          1           0       -3.862419   -0.255763   -0.556379
 ---------------------------------------------------------------------

 SCF Done:  E(RHF) =  -904.152126804     a.u. after   12 cycles
 E2 =    -0.1760274732D+01 EUMP2 =    -0.90591240153655D+03

 The electronic state is 1-A.
 Alpha  occ. eigenvalues --  -92.03106 -20.55439 -20.54296 -15.62612 -15.60399
 Alpha  occ. eigenvalues --  -15.59929 -11.38637 -11.38115 -11.33313 -11.32312
 Alpha  occ. eigenvalues --  -11.31907  -9.03220  -6.71485  -6.71288  -6.71150
 Alpha  occ. eigenvalues --   -1.40714  -1.39673  -1.26930  -1.23145  -1.22580
 Alpha  occ. eigenvalues --   -1.11743  -1.03302  -0.92231  -0.86343  -0.80726
 Alpha  occ. eigenvalues --   -0.76342  -0.75021  -0.70596  -0.69795  -0.67405
 Alpha  occ. eigenvalues --   -0.63870  -0.62900  -0.61281  -0.58586  -0.58035
 Alpha  occ. eigenvalues --   -0.56603  -0.55677  -0.53521  -0.52692  -0.46979
 Alpha  occ. eigenvalues --   -0.46542  -0.45647  -0.42835  -0.41338  -0.39347
 Alpha virt. eigenvalues --    0.03433   0.04336   0.04860   0.06008   0.06892
 Alpha virt. eigenvalues --    0.07370   0.08417   0.09578   0.09929   0.10338
 Alpha virt. eigenvalues --    0.11050   0.11620   0.12705   0.13015   0.13227

 Mulliken atomic charges:
              1
     1  C    0.222641
     2  O   -0.452023
     3  N   -0.173295
     4  H    0.358980
     5  C   -0.300058
     6  H    0.265565
     7  C    0.245623
     8  O   -0.414538
     9  H    0.258575
    10  H    0.238615
    11  C   -0.408761
    12  S   -0.117360
    13  C    0.116325
    14  N   -0.199836
    15  N   -0.505210
    16  H    0.176696
    17  H    0.326179
    18  H    0.361881
 Sum of Mulliken atomic charges =   0.00000

 Dipole moment (field-independent basis, Debye):
    X=             -0.7568    Y=             -1.6946    Z=              1.3399  Tot=              2.2891
 Quadrupole moment (field-independent basis, Debye-Ang):
   XX=            -77.3046   YY=            -84.8302   ZZ=            -68.2189
   XY=            -10.4758   XZ=              4.5809   YZ=              8.9208

 Normal termination of Gaussian 09 at Wed Feb 19 13:06:16 2020.
