 Gaussian 09, Revision A.02,
 Gaussian 09:  EM64L-G09RevA.02 11-Jun-2009

 ----------------------------------------------------------------------
 #P MP2/6-311++G** SP SCF=(qc,maxcycle=800) Guess=Indo MaxDisk=100GB Po
 p=NBORead
 ----------------------------------------------------------------------

 ---------------------------------------------------------------------
 ModifiedRes Rotatable Bond SP Calculation on g2-node38.bme.utexas.edu
 ---------------------------------------------------------------------
 Symbolic Z-matrix:
 Charge =  0 Multiplicity = 1

                         Standard orientation:
 ---------------------------------------------------------------------
 Center     Atomic      Atomic             Coordinates (Angstroms)
 Number     Number       Type             X           Y           Z
 ---------------------------------------------------------------------
      1          6           0       -0.675892    2.130975    0.121942
      2          8           0       -1.461966    2.293558   -0.819095
      3          7           0       -0.244184    0.896139    0.504401
      4          1           0        0.309603    0.827374    1.354097
      5          6           0       -0.549256   -0.331567   -0.251735
      6          1           0       -0.632929   -0.047428   -1.310914
      7          6           0       -1.901787   -0.912939    0.208699
      8          8           0       -1.922645   -1.953275    0.869443
      9          1           0        0.660729   -1.656121    0.961985
     10          1           0        0.256464   -2.287622   -0.649593
     11          6           0        0.564193   -1.398208   -0.094691
     12         16           0        2.180255   -0.871172   -0.813570
     13          6           0        2.660118    0.313524    0.313672
     14          7           0        2.977990    1.104758    1.139512
     15          7           0       -3.004372   -0.214965   -0.171859
     16          1           0       -0.289927    2.962174    0.732061
     17          1           0       -2.887364    0.663621   -0.671407
     18          1           0       -3.914050   -0.557752    0.106404
 ---------------------------------------------------------------------

 SCF Done:  E(RHF) =  -904.162556047     a.u. after   11 cycles
 E2 =    -0.1758490446D+01 EUMP2 =    -0.90592104649284D+03

 The electronic state is 1-A.
 Alpha  occ. eigenvalues --  -92.03516 -20.55559 -20.54320 -15.62616 -15.60942
 Alpha  occ. eigenvalues --  -15.59953 -11.38747 -11.38031 -11.32954 -11.32862
 Alpha  occ. eigenvalues --  -11.31922  -9.03625  -6.71880  -6.71691  -6.71544
 Alpha  occ. eigenvalues --   -1.40871  -1.39760  -1.27015  -1.23743  -1.22545
 Alpha  occ. eigenvalues --   -1.12234  -1.03460  -0.92089  -0.86354  -0.80705
 Alpha  occ. eigenvalues --   -0.76381  -0.75050  -0.71382  -0.69251  -0.68130
 Alpha  occ. eigenvalues --   -0.63546  -0.63139  -0.60606  -0.59028  -0.58046
 Alpha  occ. eigenvalues --   -0.57329  -0.56128  -0.54156  -0.52773  -0.47079
 Alpha  occ. eigenvalues --   -0.46987  -0.45928  -0.42842  -0.42066  -0.39513
 Alpha virt. eigenvalues --    0.03722   0.04563   0.05019   0.05905   0.06825
 Alpha virt. eigenvalues --    0.07511   0.08231   0.09103   0.09690   0.10514
 Alpha virt. eigenvalues --    0.10989   0.11477   0.12399   0.12804   0.13537

 Mulliken atomic charges:
              1
     1  C    0.260744
     2  O   -0.460746
     3  N   -0.092420
     4  H    0.339927
     5  C   -0.567996
     6  H    0.261751
     7  C    0.255793
     8  O   -0.418718
     9  H    0.267857
    10  H    0.259409
    11  C   -0.397383
    12  S    0.465255
    13  C   -0.314176
    14  N   -0.204764
    15  N   -0.514292
    16  H    0.170445
    17  H    0.326888
    18  H    0.362427
 Sum of Mulliken atomic charges =   0.00000

 Dipole moment (field-independent basis, Debye):
    X=             -0.9472    Y=             -0.7470    Z=             -0.8389  Tot=              1.4694
 Quadrupole moment (field-independent basis, Debye-Ang):
   XX=            -77.3650   YY=            -80.3823   ZZ=            -74.9036
   XY=             -6.1345   XZ=             -3.4628   YZ=              8.6381

 Normal termination of Gaussian 09 at Wed Feb 19 13:06:01 2020.
