 Gaussian 09, Revision A.02,
 Gaussian 09:  EM64L-G09RevA.02 11-Jun-2009

 ----------------------------------------------
 #P opt=(,maxcycle=400) HF/6-31G* MaxDisk=100GB
 ----------------------------------------------

 -------------------------------------------------------------------
 ModifiedRes Rotatable Bond Optimization on g2-node38.bme.utexas.edu
 -------------------------------------------------------------------
 Symbolic Z-matrix:
 Charge =  0 Multiplicity = 1

 SCF Done:  E(RHF) =  -903.987189397     A.U. after   16 cycles
 SCF Done:  E(RHF) =  -904.002718268     A.U. after   14 cycles
 SCF Done:  E(RHF) =  -904.004770310     A.U. after   14 cycles
 SCF Done:  E(RHF) =  -904.009188746     A.U. after   15 cycles
 SCF Done:  E(RHF) =  -904.012235881     A.U. after   16 cycles
 SCF Done:  E(RHF) =  -904.012989232     A.U. after   17 cycles
 SCF Done:  E(RHF) =  -904.012835639     A.U. after   14 cycles
 SCF Done:  E(RHF) =  -904.013468286     A.U. after   13 cycles
 SCF Done:  E(RHF) =  -904.013402835     A.U. after   13 cycles
 SCF Done:  E(RHF) =  -904.013547523     A.U. after   13 cycles
 SCF Done:  E(RHF) =  -904.013597153     A.U. after   12 cycles
 SCF Done:  E(RHF) =  -904.013624462     A.U. after   12 cycles
 SCF Done:  E(RHF) =  -904.013633758     A.U. after   11 cycles
 SCF Done:  E(RHF) =  -904.013636692     A.U. after   11 cycles
 SCF Done:  E(RHF) =  -904.013637975     A.U. after   10 cycles
 SCF Done:  E(RHF) =  -904.013638256     A.U. after   10 cycles
 SCF Done:  E(RHF) =  -904.013638339     A.U. after    9 cycles
 Optimization completed.
    -- Stationary point found.

                         Standard orientation:
 ---------------------------------------------------------------------
 Center     Atomic      Atomic             Coordinates (Angstroms)
 Number     Number       Type             X           Y           Z
 ---------------------------------------------------------------------
      1          6           0        1.736484    1.953277   -0.366004
      2          8           0        2.750681    1.827737    0.262475
      3          7           0        0.683736    1.118367   -0.289822
      4          1           0       -0.058298    1.227869   -0.945516
      5          6           0        0.655291   -0.023315    0.603157
      6          1           0        1.235330    0.249221    1.476672
      7          6           0        1.301075   -1.270989   -0.015759
      8          8           0        0.654288   -2.265160   -0.211370
      9          1           0       -0.738568   -1.179575    1.744485
     10          1           0       -1.171025    0.517836    1.597855
     11          6           0       -0.760316   -0.333219    1.076811
     12         16           0       -1.912901   -0.776557   -0.288484
     13          6           0       -3.012879    0.527712   -0.150504
     14          7           0       -3.747896    1.394083   -0.090018
     15          7           0        2.607674   -1.158423   -0.291728
     16          1           0        1.583269    2.774036   -1.063354
     17          1           0        3.119004   -0.327296   -0.088099
     18          1           0        3.074416   -1.936788   -0.700372
 ---------------------------------------------------------------------

 The electronic state is 1-A.
 Alpha  occ. eigenvalues --  -92.00887 -20.56492 -20.55082 -15.62678 -15.59760
 Alpha  occ. eigenvalues --  -15.58732 -11.38089 -11.37287 -11.31851 -11.30460
 Alpha  occ. eigenvalues --  -11.29875  -9.01707  -6.69987  -6.69798  -6.69607
 Alpha  occ. eigenvalues --   -1.42943  -1.41664  -1.28166  -1.24220  -1.23246
 Alpha  occ. eigenvalues --   -1.11855  -1.03076  -0.91571  -0.86699  -0.81413
 Alpha  occ. eigenvalues --   -0.77455  -0.75566  -0.71206  -0.69782  -0.66925
 Alpha  occ. eigenvalues --   -0.64078  -0.63062  -0.60507  -0.59496  -0.58657
 Alpha  occ. eigenvalues --   -0.57503  -0.55687  -0.52797  -0.52568  -0.47578
 Alpha  occ. eigenvalues --   -0.46024  -0.45693  -0.42897  -0.41552  -0.38587
 Alpha virt. eigenvalues --    0.13441   0.15899   0.18659   0.19700   0.20246
 Alpha virt. eigenvalues --    0.22227   0.23090   0.23824   0.24875   0.27934
 Alpha virt. eigenvalues --    0.28426   0.30353   0.32401   0.34272   0.36973

 Mulliken atomic charges:
              1
     1  C    0.519775
     2  O   -0.587859
     3  N   -0.765674
     4  H    0.419894
     5  C   -0.081421
     6  H    0.251388
     7  C    0.780356
     8  O   -0.607498
     9  H    0.251936
    10  H    0.248120
    11  C   -0.501461
    12  S    0.307921
    13  C    0.066412
    14  N   -0.391708
    15  N   -0.938477
    16  H    0.183890
    17  H    0.442398
    18  H    0.402009
 Sum of Mulliken atomic charges =   0.00000

 Dipole moment (field-independent basis, Debye):
    X=              3.1449    Y=              0.2668    Z=             -0.0488  Tot=              3.1566
 Quadrupole moment (field-independent basis, Debye-Ang):
   XX=            -87.0041   YY=            -79.3876   ZZ=            -65.8411
   XY=              0.1843   XZ=             -4.6219   YZ=             -4.7070

 Normal termination of Gaussian 09 at Wed Feb 19 12:35:13 2020.
