 Gaussian 09, Revision A.02,
 Gaussian 09:  EM64L-G09RevA.02 11-Jun-2009

 ----------------------------------------------
 #P opt=(,maxcycle=400) HF/6-31G* MaxDisk=100GB
 ----------------------------------------------

 -------------------------------------------------------------------
 ModifiedRes Rotatable Bond Optimization on g2-node38.bme.utexas.edu
 -------------------------------------------------------------------
 Symbolic Z-matrix:
 Charge =  0 Multiplicity = 1

 SCF Done:  E(RHF) =  -903.989088275     A.U. after   16 cycles
 SCF Done:  E(RHF) =  -904.004100653     A.U. after   14 cycles
 SCF Done:  E(RHF) =  -904.005637138     A.U. after   15 cycles
 SCF Done:  E(RHF) =  -904.005529245     A.U. after   15 cycles
 SCF Done:  E(RHF) =  -904.006743014     A.U. after   13 cycles
 SCF Done:  E(RHF) =  -904.006989250     A.U. after   13 cycles
 SCF Done:  E(RHF) =  -904.006917219     A.U. after   15 cycles
 SCF Done:  E(RHF) =  -904.007780326     A.U. after   13 cycles
 SCF Done:  E(RHF) =  -904.007984845     A.U. after   15 cycles
 SCF Done:  E(RHF) =  -904.006156780     A.U. after   15 cycles
 SCF Done:  E(RHF) =  -904.010915744     A.U. after   13 cycles
 SCF Done:  E(RHF) =  -904.011126772     A.U. after   12 cycles
 SCF Done:  E(RHF) =  -904.011222681     A.U. after   12 cycles
 SCF Done:  E(RHF) =  -904.011345623     A.U. after   12 cycles
 SCF Done:  E(RHF) =  -904.011417586     A.U. after   13 cycles
 SCF Done:  E(RHF) =  -904.011467180     A.U. after   12 cycles
 SCF Done:  E(RHF) =  -904.011477265     A.U. after   12 cycles
 SCF Done:  E(RHF) =  -904.011479938     A.U. after   11 cycles
 SCF Done:  E(RHF) =  -904.011481056     A.U. after   11 cycles
 SCF Done:  E(RHF) =  -904.011481487     A.U. after   10 cycles
 Optimization completed.
    -- Stationary point found.

                         Standard orientation:
 ---------------------------------------------------------------------
 Center     Atomic      Atomic             Coordinates (Angstroms)
 Number     Number       Type             X           Y           Z
 ---------------------------------------------------------------------
      1          6           0        1.915074   -1.808836    0.474393
      2          8           0        2.538260   -1.849280   -0.547974
      3          7           0        0.972431   -0.886407    0.757576
      4          1           0        0.596987   -0.859962    1.680179
      5          6           0        0.605102    0.165737   -0.176056
      6          1           0        0.716508   -0.244981   -1.170171
      7          6           0        1.544532    1.374332   -0.029540
      8          8           0        1.191598    2.378167    0.522482
      9          1           0       -0.966669    1.028716    1.031505
     10          1           0       -1.092745    1.372325   -0.678108
     11          6           0       -0.834702    0.614151    0.044288
     12         16           0       -1.956363   -0.821227   -0.177044
     13          6           0       -3.448452    0.002189   -0.102084
     14          7           0       -4.456049    0.527056   -0.053569
     15          7           0        2.763474    1.195158   -0.566382
     16          1           0        2.059189   -2.533389    1.272945
     17          1           0        3.054625    0.305025   -0.908068
     18          1           0        3.446737    1.904711   -0.421024
 ---------------------------------------------------------------------

 The electronic state is 1-A.
 Alpha  occ. eigenvalues --  -92.01090 -20.56944 -20.54872 -15.63317 -15.59693
 Alpha  occ. eigenvalues --  -15.58907 -11.38515 -11.37293 -11.32195 -11.30401
 Alpha  occ. eigenvalues --  -11.30071  -9.01998  -6.70307  -6.70117  -6.69913
 Alpha  occ. eigenvalues --   -1.43377  -1.41613  -1.28588  -1.24299  -1.23200
 Alpha  occ. eigenvalues --   -1.12245  -1.03304  -0.91357  -0.87052  -0.81774
 Alpha  occ. eigenvalues --   -0.76978  -0.75844  -0.71456  -0.69983  -0.67174
 Alpha  occ. eigenvalues --   -0.64517  -0.62830  -0.62083  -0.58995  -0.58411
 Alpha  occ. eigenvalues --   -0.57098  -0.56108  -0.53406  -0.52338  -0.47402
 Alpha  occ. eigenvalues --   -0.46509  -0.46143  -0.42868  -0.41764  -0.38696
 Alpha virt. eigenvalues --    0.12893   0.15865   0.17638   0.19444   0.20876
 Alpha virt. eigenvalues --    0.21184   0.22428   0.23471   0.24298   0.27395
 Alpha virt. eigenvalues --    0.28397   0.29670   0.32297   0.34512   0.37793

 Mulliken atomic charges:
              1
     1  C    0.521817
     2  O   -0.579184
     3  N   -0.768339
     4  H    0.406874
     5  C   -0.100434
     6  H    0.253924
     7  C    0.775476
     8  O   -0.596810
     9  H    0.246029
    10  H    0.252412
    11  C   -0.492750
    12  S    0.286036
    13  C    0.084628
    14  N   -0.376531
    15  N   -0.934316
    16  H    0.182739
    17  H    0.439000
    18  H    0.399427
 Sum of Mulliken atomic charges =   0.00000

 Dipole moment (field-independent basis, Debye):
    X=              4.1292    Y=             -2.0493    Z=              1.5084  Tot=              4.8503
 Quadrupole moment (field-independent basis, Debye-Ang):
   XX=            -89.2624   YY=            -79.2522   ZZ=            -67.5817
   XY=              6.4322   XZ=              2.5747   YZ=             -8.6391

 Normal termination of Gaussian 09 at Wed Feb 19 12:50:43 2020.
