 Gaussian 09, Revision A.02,
 Gaussian 09:  EM64L-G09RevA.02 11-Jun-2009

 ----------------------------------------------
 #P opt=(,maxcycle=400) HF/6-31G* MaxDisk=100GB
 ----------------------------------------------

 -------------------------------------------------------------------
 ModifiedRes Rotatable Bond Optimization on g2-node38.bme.utexas.edu
 -------------------------------------------------------------------
 Symbolic Z-matrix:
 Charge =  0 Multiplicity = 1

 SCF Done:  E(RHF) =  -903.991724824     A.U. after   16 cycles
 SCF Done:  E(RHF) =  -904.006870327     A.U. after   14 cycles
 SCF Done:  E(RHF) =  -904.008781908     A.U. after   15 cycles
 SCF Done:  E(RHF) =  -904.008849034     A.U. after   15 cycles
 SCF Done:  E(RHF) =  -904.010310763     A.U. after   13 cycles
 SCF Done:  E(RHF) =  -904.010458721     A.U. after   13 cycles
 SCF Done:  E(RHF) =  -904.010655254     A.U. after   14 cycles
 SCF Done:  E(RHF) =  -904.011009556     A.U. after   13 cycles
 SCF Done:  E(RHF) =  -904.011231246     A.U. after   13 cycles
 SCF Done:  E(RHF) =  -904.011319236     A.U. after   13 cycles
 SCF Done:  E(RHF) =  -904.011423181     A.U. after   12 cycles
 SCF Done:  E(RHF) =  -904.011469670     A.U. after   12 cycles
 SCF Done:  E(RHF) =  -904.011478254     A.U. after   12 cycles
 SCF Done:  E(RHF) =  -904.011481218     A.U. after   11 cycles
 SCF Done:  E(RHF) =  -904.011481508     A.U. after    8 cycles
 Optimization completed.
    -- Stationary point found.

                         Standard orientation:
 ---------------------------------------------------------------------
 Center     Atomic      Atomic             Coordinates (Angstroms)
 Number     Number       Type             X           Y           Z
 ---------------------------------------------------------------------
      1          6           0        1.915485   -1.808689    0.474631
      2          8           0        2.539138   -1.848858   -0.547465
      3          7           0        0.972490   -0.886542    0.757572
      4          1           0        0.595989   -0.860796    1.679751
      5          6           0        0.605194    0.165491   -0.176111
      6          1           0        0.716630   -0.245125   -1.170293
      7          6           0        1.544215    1.374337   -0.029514
      8          8           0        1.190905    2.377856    0.522820
      9          1           0       -0.966790    1.028081    1.031503
     10          1           0       -1.092516    1.372320   -0.678037
     11          6           0       -0.834658    0.613889    0.044146
     12         16           0       -1.956411   -0.821350   -0.177881
     13          6           0       -3.448503    0.001983   -0.101881
     14          7           0       -4.455975    0.527046   -0.052621
     15          7           0        2.763200    1.195890   -0.566599
     16          1           0        2.059523   -2.533217    1.273230
     17          1           0        3.054876    0.305799   -0.907965
     18          1           0        3.446124    1.905727   -0.421025
 ---------------------------------------------------------------------

 The electronic state is 1-A.
 Alpha  occ. eigenvalues --  -92.01090 -20.56944 -20.54872 -15.63317 -15.59692
 Alpha  occ. eigenvalues --  -15.58908 -11.38514 -11.37292 -11.32195 -11.30402
 Alpha  occ. eigenvalues --  -11.30072  -9.01999  -6.70308  -6.70118  -6.69914
 Alpha  occ. eigenvalues --   -1.43376  -1.41614  -1.28589  -1.24299  -1.23199
 Alpha  occ. eigenvalues --   -1.12245  -1.03304  -0.91357  -0.87054  -0.81772
 Alpha  occ. eigenvalues --   -0.76977  -0.75844  -0.71458  -0.69983  -0.67174
 Alpha  occ. eigenvalues --   -0.64517  -0.62831  -0.62083  -0.58995  -0.58408
 Alpha  occ. eigenvalues --   -0.57100  -0.56108  -0.53406  -0.52339  -0.47402
 Alpha  occ. eigenvalues --   -0.46509  -0.46142  -0.42868  -0.41763  -0.38697
 Alpha virt. eigenvalues --    0.12892   0.15867   0.17636   0.19443   0.20873
 Alpha virt. eigenvalues --    0.21181   0.22430   0.23472   0.24298   0.27396
 Alpha virt. eigenvalues --    0.28400   0.29670   0.32294   0.34510   0.37791

 Mulliken atomic charges:
              1
     1  C    0.521831
     2  O   -0.579187
     3  N   -0.768332
     4  H    0.406899
     5  C   -0.100375
     6  H    0.253894
     7  C    0.775470
     8  O   -0.596791
     9  H    0.246047
    10  H    0.252425
    11  C   -0.492783
    12  S    0.285967
    13  C    0.084639
    14  N   -0.376523
    15  N   -0.934299
    16  H    0.182722
    17  H    0.438978
    18  H    0.399419
 Sum of Mulliken atomic charges =   0.00000

 Dipole moment (field-independent basis, Debye):
    X=              4.1274    Y=             -2.0498    Z=              1.5064  Tot=              4.8483
 Quadrupole moment (field-independent basis, Debye-Ang):
   XX=            -89.2680   YY=            -79.2435   ZZ=            -67.5846
   XY=              6.4398   XZ=              2.5798   YZ=             -8.6406

 Normal termination of Gaussian 09 at Wed Feb 19 12:47:27 2020.
