                               Psi4 1.4a2.dev224

  ==> Input File <==

--------------------------------------------------------------------------
molecule {
0 1
C         -0.47371        4.27503       -0.77187
C          0.87084        4.19244       -0.43065
C          1.54727        2.99041       -0.63159
C          0.82084        1.92625       -1.18243
N         -0.46815        1.98992       -1.51144
C         -1.09708        3.14998       -1.30056
C          2.96911        2.78932       -0.25382
C          3.90008        3.81935       -0.15464
C          5.18600        3.44690        0.23537
N          5.54537        2.19763        0.49695
C          4.57198        1.27516        0.35487
N          3.31198        1.52371       -0.00190
N          4.96076       -0.01077        0.61383
C          4.24521       -1.21694        0.49486
C          4.96913       -2.42652        0.47940
C          4.24867       -3.60943        0.33791
C          2.86290       -3.65084        0.19525
C          2.17146       -2.44338        0.21738
C          2.85964       -1.24338        0.39422
N          0.78490       -2.30552        0.03968
C         -0.15513       -3.23277       -0.33055
C         -1.47460       -2.60135       -0.67488
C         -1.54971       -1.35841       -1.31049
C         -2.78202       -0.77912       -1.57429
C         -3.96543       -1.41030       -1.19124
C         -3.88375       -2.67771       -0.60766
C         -2.65364       -3.27465       -0.35738
C         -5.30246       -0.70455       -1.34847
N         -5.69259        0.22593       -0.30001
C         -5.02549        1.52255       -0.24816
C         -3.81574        1.57764        0.70257
N         -4.11336        1.06917        2.03871
C         -4.90226        1.97855        2.85066
C         -4.67962       -0.27421        1.93997
C         -5.91455       -0.33999        1.02601
O          0.03689       -4.43661       -0.36416
C          6.47194       -2.44212        0.59879
H         -1.03315        5.19170       -0.61922
H          1.37594        5.04559        0.01306
H          1.32497        0.98089       -1.36624
H         -2.15207        3.17672       -1.56481
H          3.66108        4.85110       -0.38072
H          5.96756        4.19707        0.33808
H          5.94202       -0.07680        0.83961
H          4.79702       -4.54804        0.32434
H          2.33406       -4.58494        0.06432
H          2.31440       -0.31214        0.42006
H          0.44625       -1.35913        0.13117
H         -0.65324       -0.83345       -1.62738
H         -2.80990        0.19025       -2.06536
H         -4.79847       -3.19756       -0.33129
H         -2.59000       -4.25717        0.09963
H         -5.30814       -0.14953       -2.29438
H         -6.09480       -1.46039       -1.42276
H         -4.72347        1.80357       -1.26422
H         -5.76682        2.26792        0.07741
H         -3.45832        2.61151        0.79194
H         -2.99089        0.98223        0.29567
H         -5.91224        2.20611        2.46639
H         -4.36451        2.92792        2.95067
H         -5.01815        1.55190        3.85296
H         -4.93834       -0.62252        2.94729
H         -3.89774       -0.93786        1.55273
H         -6.74334        0.20860        1.49778
H         -6.24836       -1.37780        0.91525
H          6.81749       -2.03147        1.55741
H          6.95197       -1.86475       -0.20204
H          6.85243       -3.46459        0.53387
}
memory 100GB
set_num_threads(10)
psi4_io.set_default_path("/scratch/liuchw")
set freeze_core True
E, wfn = energy('mp2/6-311++G(2d,2p)',return_wfn=True)
oeprop(wfn,"DIPOLE","GRID_ESP")
clean()
--------------------------------------------------------------------------

    Molecular point group: c1

    Geometry (in Angstrom), charge = 0, multiplicity = 1:

       Center              X                  Y                   Z               Mass
    ------------   -----------------  -----------------  -----------------  -----------------
         C           -0.535522433868     4.289266468258    -0.754722696836    12.000000000000
         C            0.809027566132     4.206676468258    -0.413502696836    12.000000000000
         C            1.485457566132     3.004646468258    -0.614442696836    12.000000000000
         C            0.759027566132     1.940486468258    -1.165282696836    12.000000000000
         N           -0.529962433868     2.004156468258    -1.494292696836    14.003074004430
         C           -1.158892433868     3.164216468258    -1.283412696836    12.000000000000
         C            2.907297566132     2.803556468258    -0.236672696836    12.000000000000
         C            3.838267566132     3.833586468258    -0.137492696836    12.000000000000
         C            5.124187566132     3.461136468258     0.252517303164    12.000000000000
         N            5.483557566132     2.211866468258     0.514097303164    14.003074004430
         C            4.510167566132     1.289396468258     0.372017303164    12.000000000000
         N            3.250167566132     1.537946468258     0.015247303164    14.003074004430
         N            4.898947566132     0.003466468258     0.630977303164    14.003074004430
         C            4.183397566132    -1.202703531742     0.512007303164    12.000000000000
         C            4.907317566132    -2.412283531742     0.496547303164    12.000000000000
         C            4.186857566132    -3.595193531742     0.355057303164    12.000000000000
         C            2.801087566132    -3.636603531742     0.212397303164    12.000000000000
         C            2.109647566132    -2.429143531742     0.234527303164    12.000000000000
         C            2.797827566132    -1.229143531742     0.411367303164    12.000000000000
         N            0.723087566132    -2.291283531742     0.056827303164    14.003074004430
         C           -0.216942433868    -3.218533531742    -0.313402696836    12.000000000000
         C           -1.536412433868    -2.587113531742    -0.657732696836    12.000000000000
         C           -1.611522433868    -1.344173531742    -1.293342696836    12.000000000000
         C           -2.843832433868    -0.764883531742    -1.557142696836    12.000000000000
         C           -4.027242433868    -1.396063531742    -1.174092696836    12.000000000000
         C           -3.945562433868    -2.663473531742    -0.590512696836    12.000000000000
         C           -2.715452433868    -3.260413531742    -0.340232696836    12.000000000000
         C           -5.364272433868    -0.690313531742    -1.331322696836    12.000000000000
         N           -5.754402433868     0.240166468258    -0.282862696836    14.003074004430
         C           -5.087302433868     1.536786468258    -0.231012696836    12.000000000000
         C           -3.877552433868     1.591876468258     0.719717303164    12.000000000000
         N           -4.175172433868     1.083406468258     2.055857303164    14.003074004430
         C           -4.964072433868     1.992786468258     2.867807303164    12.000000000000
         C           -4.741432433868    -0.259973531742     1.957117303164    12.000000000000
         C           -5.976362433868    -0.325753531742     1.043157303164    12.000000000000
         O           -0.024922433868    -4.422373531742    -0.347012696836    15.994914619570
         C            6.410127566132    -2.427883531742     0.615937303164    12.000000000000
         H           -1.094962433868     5.205936468258    -0.602072696836     1.007825032230
         H            1.314127566132     5.059826468258     0.030207303164     1.007825032230
         H            1.263157566132     0.995126468258    -1.349092696836     1.007825032230
         H           -2.213882433868     3.190956468258    -1.547662696836     1.007825032230
         H            3.599267566132     4.865336468258    -0.363572696836     1.007825032230
         H            5.905747566132     4.211306468258     0.355227303164     1.007825032230
         H            5.880207566132    -0.062563531742     0.856757303164     1.007825032230
         H            4.735207566132    -4.533803531742     0.341487303164     1.007825032230
         H            2.272247566132    -4.570703531742     0.081467303164     1.007825032230
         H            2.252587566132    -0.297903531742     0.437207303164     1.007825032230
         H            0.384437566132    -1.344893531742     0.148317303164     1.007825032230
         H           -0.715052433868    -0.819213531742    -1.610232696836     1.007825032230
         H           -2.871712433868     0.204486468258    -2.048212696836     1.007825032230
         H           -4.860282433868    -3.183323531742    -0.314142696836     1.007825032230
         H           -2.651812433868    -4.242933531742     0.116777303164     1.007825032230
         H           -5.369952433868    -0.135293531742    -2.277232696836     1.007825032230
         H           -6.156612433868    -1.446153531742    -1.405612696836     1.007825032230
         H           -4.785282433868     1.817806468258    -1.247072696836     1.007825032230
         H           -5.828632433868     2.282156468258     0.094557303164     1.007825032230
         H           -3.520132433868     2.625746468258     0.809087303164     1.007825032230
         H           -3.052702433868     0.996466468258     0.312817303164     1.007825032230
         H           -5.974052433868     2.220346468258     2.483537303164     1.007825032230
         H           -4.426322433868     2.942156468258     2.967817303164     1.007825032230
         H           -5.079962433868     1.566136468258     3.870107303164     1.007825032230
         H           -5.000152433868    -0.608283531742     2.964437303164     1.007825032230
         H           -3.959552433868    -0.923623531742     1.569877303164     1.007825032230
         H           -6.805152433868     0.222836468258     1.514927303164     1.007825032230
         H           -6.310172433868    -1.363563531742     0.932397303164     1.007825032230
         H            6.755677566132    -2.017233531742     1.574557303164     1.007825032230
         H            6.890157566132    -1.850513531742    -0.184892696836     1.007825032230
         H            6.790617566132    -3.450353531742     0.551017303164     1.007825032230

  Charge       = 0
  Multiplicity = 1
  Basis Set: 6-311++G(2D,2P)
    Blend: 6-311++G(2D,2P)
  Basis Set: (6-311++G(2D,2P) AUX)
    Blend: AUG-CC-PVTZ-JKFIT

    Orbital Energies [Eh]
    ---------------------

    Doubly Occupied:

       1A    -20.520381     2A    -15.600257     3A    -15.593939
       4A    -15.584811     5A    -15.571317     6A    -15.565735
       7A    -15.541544     8A    -15.538604     9A    -11.368891
      10A    -11.356389    11A    -11.323185    12A    -11.309439
      13A    -11.296714    14A    -11.295204    15A    -11.286463
      16A    -11.282076    17A    -11.279950    18A    -11.269506
      19A    -11.260505    20A    -11.259770    21A    -11.248470
      22A    -11.246325    23A    -11.244811    24A    -11.244103
      25A    -11.243958    26A    -11.243755    27A    -11.242033
      28A    -11.240373    29A    -11.240018    30A    -11.238250
      31A    -11.236458    32A    -11.234304    33A    -11.233379
      34A    -11.231171    35A    -11.229608    36A    -11.217883
      37A    -11.214163    38A     -1.383727    39A     -1.350259
      40A     -1.282995    41A     -1.258584    42A     -1.252318
      43A     -1.250184    44A     -1.213861    45A     -1.202740
      46A     -1.162833    47A     -1.140389    48A     -1.120441
      49A     -1.077552    50A     -1.060525    51A     -1.049209
      52A     -1.036092    53A     -1.025269    54A     -1.019040
      55A     -1.006426    56A     -0.979788    57A     -0.947971
      58A     -0.928983    59A     -0.927504    60A     -0.903744
      61A     -0.876182    62A     -0.869344    63A     -0.868197
      64A     -0.859279    65A     -0.840934    66A     -0.836043
      67A     -0.825115    68A     -0.804977    69A     -0.779023
      70A     -0.758318    71A     -0.747898    72A     -0.740101
      73A     -0.730715    74A     -0.722380    75A     -0.700697
      76A     -0.684695    77A     -0.677211    78A     -0.672012
      79A     -0.660392    80A     -0.656281    81A     -0.649706
      82A     -0.645335    83A     -0.637748    84A     -0.634896
      85A     -0.629469    86A     -0.624706    87A     -0.623651
      88A     -0.616009    89A     -0.613044    90A     -0.610683
      91A     -0.606553    92A     -0.601929    93A     -0.599361
      94A     -0.596002    95A     -0.590628    96A     -0.584573
      97A     -0.580239    98A     -0.576879    99A     -0.567148
     100A     -0.564374   101A     -0.545899   102A     -0.545481
     103A     -0.536956   104A     -0.536381   105A     -0.527849
     106A     -0.524112   107A     -0.518698   108A     -0.516980
     109A     -0.515494   110A     -0.508479   111A     -0.507297
     112A     -0.494716   113A     -0.484044   114A     -0.482878
     115A     -0.479688   116A     -0.470572   117A     -0.466460
     118A     -0.452182   119A     -0.442994   120A     -0.425336
     121A     -0.423351   122A     -0.415828   123A     -0.401299
     124A     -0.383830   125A     -0.373300   126A     -0.346394
     127A     -0.342409   128A     -0.338888   129A     -0.310557
     130A     -0.307544   131A     -0.284269

  @DF-RHF Final Energy: -1572.66074783370004

   => Energetics <=

    Nuclear Repulsion Energy =           3895.1179563145465181
    One-Electron Energy =               -9889.3832985872923018
    Two-Electron Energy =                4421.6045944390452860
    Total Energy =                      -1572.6607478337000430
  Basis Set: (6-311++G(2D,2P) AUX)
    Blend: AUG-CC-PVTZ-RI
	 Reference Energy          =   -1572.6607478337000430 [Eh]
	 Singles Energy            =      -0.0000000000000000 [Eh]
	 Same-Spin Energy          =      -1.5403382740759521 [Eh]
	 Opposite-Spin Energy      =      -4.2435575660695282 [Eh]
	 Correlation Energy        =      -5.7838958401454805 [Eh]
	 Total Energy              =   -1578.4446436738455759 [Eh]

	 ================> DF-SCS-MP2 Energies <==================
	-----------------------------------------------------------
	 SCS Same-Spin Scale       =       0.3333333333333333 [-]
	 SCS Opposite-Spin Scale   =       1.2000000000000000 [-]
	 SCS Same-Spin Energy      =      -0.5134460913586507 [Eh]
	 SCS Opposite-Spin Energy  =      -5.0922690792834340 [Eh]
	 SCS Correlation Energy    =      -5.6057151706420845 [Eh]
	 SCS Total Energy          =   -1578.2664630043420857 [Eh]
	-----------------------------------------------------------

  Dipole Moment: [D]
     X:    -0.0168      Y:     7.2292      Z:     0.3541     Total:     7.2379

*** Psi4 exiting successfully. Buy a developer a beer!
