 Gaussian 09, Revision A.02,
 Gaussian 09:  EM64L-G09RevA.02 11-Jun-2009

 --------------------------------------------
 #P MP2/6-311G** Sp Density=MP2 MaxDisk=100GB
 --------------------------------------------

 ---------------------------------------------------------------
 ModifiedRes Gaussian SP Calculation on g2-node38.bme.utexas.edu
 ---------------------------------------------------------------
 Symbolic Z-matrix:
 Charge =  0 Multiplicity = 1

                         Standard orientation:
 ---------------------------------------------------------------------
 Center     Atomic      Atomic             Coordinates (Angstroms)
 Number     Number       Type             X           Y           Z
 ---------------------------------------------------------------------
      1          6           0        1.918037   -1.794855    0.462741
      2          8           0        2.577912   -1.790537   -0.578815
      3          7           0        0.932454   -0.899787    0.745205
      4          1           0        0.546111   -0.877034    1.683512
      5          6           0        0.585762    0.167214   -0.187510
      6          1           0        0.701817   -0.253119   -1.192694
      7          6           0        1.538359    1.364330   -0.022598
      8          8           0        1.197539    2.384743    0.576545
      9          1           0       -0.951510    1.098530    1.008749
     10          1           0       -1.115534    1.354082   -0.735699
     11          6           0       -0.844902    0.625723    0.030817
     12         16           0       -1.940728   -0.836397   -0.099663
     13          6           0       -3.423067   -0.010598   -0.128079
     14          7           0       -4.474938    0.537065   -0.149686
     15          7           0        2.752296    1.169215   -0.597354
     16          1           0        2.062169   -2.547535    1.254252
     17          1           0        3.018845    0.240314   -0.910457
     18          1           0        3.472329    1.857136   -0.414284
 ---------------------------------------------------------------------

 SCF Done:  E(RHF) =  -904.150804780     A.U. after   16 cycles
 E2 =    -0.1742223665D+01 EUMP2 =    -0.90589302844477D+03

 The electronic state is 1-A.
 Alpha  occ. eigenvalues --  -92.02507 -20.56220 -20.53925 -15.63617 -15.59457
 Alpha  occ. eigenvalues --  -15.59428 -11.39559 -11.37812 -11.32743 -11.31018
 Alpha  occ. eigenvalues --  -11.30797  -9.02703  -6.70957  -6.70770  -6.70615
 Alpha  occ. eigenvalues --   -1.41900  -1.39723  -1.28545  -1.22683  -1.22298
 Alpha  occ. eigenvalues --   -1.12527  -1.03663  -0.91388  -0.87441  -0.81569
 Alpha  occ. eigenvalues --   -0.76332  -0.75637  -0.71541  -0.69914  -0.67369
 Alpha  occ. eigenvalues --   -0.64264  -0.62417  -0.61999  -0.58894  -0.57890
 Alpha  occ. eigenvalues --   -0.56738  -0.56181  -0.53500  -0.51584  -0.47709
 Alpha  occ. eigenvalues --   -0.46834  -0.45598  -0.43124  -0.42225  -0.38763
 Alpha virt. eigenvalues --    0.10980   0.12130   0.13509   0.14885   0.15789
 Alpha virt. eigenvalues --    0.16227   0.17263   0.17645   0.17962   0.20444
 Alpha virt. eigenvalues --    0.21096   0.23402   0.25501   0.28412   0.29380

 Mulliken atomic charges:
              1
     1  C    0.280757
     2  O   -0.363131
     3  N   -0.384190
     4  H    0.247589
     5  C   -0.172908
     6  H    0.181443
     7  C    0.402711
     8  O   -0.342255
     9  H    0.180346
    10  H    0.185527
    11  C   -0.339681
    12  S    0.271374
    13  C   -0.049670
    14  N   -0.233314
    15  N   -0.442943
    16  H    0.098716
    17  H    0.249775
    18  H    0.229853
 Sum of Mulliken atomic charges =   0.00000

 Dipole moment (field-independent basis, Debye):
    X=              3.9594    Y=             -1.8226    Z=              1.4269  Tot=              4.5863
 Quadrupole moment (field-independent basis, Debye-Ang):
   XX=            -88.3805   YY=            -78.5806   ZZ=            -68.9482
   XY=              6.3930   XZ=              1.4777   YZ=             -7.3968

 Normal termination of Gaussian 09 at Wed Feb 19 12:21:44 2020.
