 Gaussian 09, Revision A.02,
 Gaussian 09:  EM64L-G09RevA.02 11-Jun-2009

 ----------------------------------------------------------------------
 #P MP2/6-311++G(2d,2p) Sp Density=MP2 SCF=Save Guess=Huckel MaxDisk=10
 0GB Pop=NBORead
 ----------------------------------------------------------------------

 ---------------------------------------------------------------
 ModifiedRes Gaussian SP Calculation on g2-node38.bme.utexas.edu
 ---------------------------------------------------------------
 Symbolic Z-matrix:
 Charge =  0 Multiplicity = 1

                         Standard orientation:
 ---------------------------------------------------------------------
 Center     Atomic      Atomic             Coordinates (Angstroms)
 Number     Number       Type             X           Y           Z
 ---------------------------------------------------------------------
      1          6           0        1.918037   -1.794855    0.462741
      2          8           0        2.577912   -1.790537   -0.578815
      3          7           0        0.932454   -0.899787    0.745205
      4          1           0        0.546111   -0.877034    1.683512
      5          6           0        0.585762    0.167214   -0.187510
      6          1           0        0.701817   -0.253119   -1.192694
      7          6           0        1.538359    1.364330   -0.022598
      8          8           0        1.197539    2.384743    0.576545
      9          1           0       -0.951510    1.098530    1.008749
     10          1           0       -1.115534    1.354082   -0.735699
     11          6           0       -0.844902    0.625723    0.030817
     12         16           0       -1.940728   -0.836397   -0.099663
     13          6           0       -3.423067   -0.010598   -0.128079
     14          7           0       -4.474938    0.537065   -0.149686
     15          7           0        2.752296    1.169215   -0.597354
     16          1           0        2.062169   -2.547535    1.254252
     17          1           0        3.018845    0.240314   -0.910457
     18          1           0        3.472329    1.857136   -0.414284
 ---------------------------------------------------------------------

 SCF Done:  E(RHF) =  -904.184054976     A.U. after   18 cycles
 E2 =    -0.1865923134D+01 EUMP2 =    -0.90604997811044D+03

 The electronic state is 1-A.
 Alpha  occ. eigenvalues --  -92.02892 -20.57017 -20.54894 -15.64077 -15.60130
 Alpha  occ. eigenvalues --  -15.59758 -11.39821 -11.38257 -11.32968 -11.31363
 Alpha  occ. eigenvalues --  -11.30882  -9.02999  -6.71268  -6.71086  -6.70921
 Alpha  occ. eigenvalues --   -1.42289  -1.40227  -1.28912  -1.23199  -1.22431
 Alpha  occ. eigenvalues --   -1.12722  -1.03909  -0.91621  -0.87826  -0.81976
 Alpha  occ. eigenvalues --   -0.76681  -0.76046  -0.71917  -0.70282  -0.67783
 Alpha  occ. eigenvalues --   -0.64705  -0.62753  -0.62451  -0.59210  -0.58202
 Alpha  occ. eigenvalues --   -0.57089  -0.56497  -0.53756  -0.51708  -0.48142
 Alpha  occ. eigenvalues --   -0.47276  -0.45841  -0.43586  -0.42654  -0.39015
 Alpha virt. eigenvalues --    0.02602   0.04230   0.05115   0.05399   0.06975
 Alpha virt. eigenvalues --    0.07522   0.08457   0.08764   0.09399   0.10574
 Alpha virt. eigenvalues --    0.10679   0.11696   0.12484   0.12763   0.13232

 Mulliken atomic charges:
              1
     1  C    0.336989
     2  O   -0.455222
     3  N   -0.107920
     4  H    0.182586
     5  C   -0.255546
     6  H    0.135660
     7  C    0.317941
     8  O   -0.481032
     9  H    0.126880
    10  H    0.115452
    11  C    0.127952
    12  S   -0.090607
    13  C    0.002692
    14  N   -0.189848
    15  N   -0.259448
    16  H    0.088874
    17  H    0.191315
    18  H    0.213283
 Sum of Mulliken atomic charges =   0.00000

 Dipole moment (field-independent basis, Debye):
    X=              3.9916    Y=             -1.9703    Z=              1.3509  Tot=              4.6519
 Quadrupole moment (field-independent basis, Debye-Ang):
   XX=            -90.8914   YY=            -79.9324   ZZ=            -69.9204
   XY=              6.7998   XZ=              1.3810   YZ=             -7.7569

 Summary of Natural Population Analysis:

                                       Natural Population
                Natural  -----------------------------------------------
    Atom  No    Charge         Core      Valence    Rydberg      Total
 -----------------------------------------------------------------------
      C    1    0.54091      1.99928     3.38911    0.07070     5.45909
      O    2   -0.61333      1.99959     6.52566    0.08808     8.61333
      N    3   -0.64504      1.99920     5.57032    0.07553     7.64504
      H    4    0.40497      0.00000     0.58810    0.00693     0.59503
      C    5   -0.13108      1.99889     4.06098    0.07121     6.13108
      H    6    0.23028      0.00000     0.76137    0.00834     0.76972
      C    7    0.65400      1.99916     3.27141    0.07543     5.34600
      O    8   -0.59479      1.99957     6.50755    0.08767     8.59479
      H    9    0.22768      0.00000     0.76390    0.00842     0.77232
      H   10    0.23583      0.00000     0.75671    0.00746     0.76417
      C   11   -0.48422      1.99898     4.41895    0.06628     6.48422
      S   12    0.30753      9.99852     5.58123    0.11273    15.69247
      C   13    0.03007      1.99906     3.89902    0.07185     5.96993
      N   14   -0.29613      1.99935     5.21836    0.07842     7.29613
      N   15   -0.80369      1.99921     5.73080    0.07368     7.80369
      H   16    0.12370      0.00000     0.86877    0.00752     0.87630
      H   17    0.41841      0.00000     0.57355    0.00803     0.58159
      H   18    0.39487      0.00000     0.59721    0.00792     0.60513
 =======================================================================
   * Total *    0.00000     29.99082    59.08299    0.92619    90.00000

 Normal termination of Gaussian 09 at Wed Feb 19 12:32:21 2020.
