                               Psi4 1.3.2 release

  ==> Input File <==

--------------------------------------------------------------------------
molecule {
0 1
P            0.419913234641     0.060155011405    -0.012430079510
O           -0.950521903287     0.860595407344    -0.054199870158
O            0.194925253532    -1.009264329926    -1.189076133835
O            0.336845185324    -0.884885831247     1.297506259683
O            1.620393974227     0.902290569073    -0.067180458076
C           -2.206150228969     0.178551990366    -0.003221203191
H           -2.971830730429     0.952438000609     0.051759210937
H           -2.261019595948    -0.460624931070     0.882816926237
H           -2.348354501683    -0.422099066422    -0.905343336195
H            1.014857343959    -1.467466848684    -1.414666702954
H            0.858353531165    -0.493737643288     2.011334354892
}
memory 20GB
set_num_threads(4)
psi4_io.set_default_path("/scratch/bdw2292")
set freeze_core True
set PROPERTIES_ORIGIN ["COM"]
E, wfn = energy('mp2/6-311G**',properties=['dipole'],return_wfn=True)
fchk(wfn, "MethylDihydrogenPhosphate-dma.fchk")
clean()
--------------------------------------------------------------------------

    Molecular point group: c1

    Geometry (in Angstrom), charge = 0, multiplicity = 1:

       Center              X                  Y                   Z               Mass
    ------------   -----------------  -----------------  -----------------  -----------------
         P            0.419913234641     0.060155011405    -0.012430079510    30.973761998420
         O           -0.950521903287     0.860595407344    -0.054199870158    15.994914619570
         O            0.194925253532    -1.009264329926    -1.189076133835    15.994914619570
         O            0.336845185324    -0.884885831247     1.297506259683    15.994914619570
         O            1.620393974227     0.902290569073    -0.067180458076    15.994914619570
         C           -2.206150228969     0.178551990366    -0.003221203191    12.000000000000
         H           -2.971830730429     0.952438000609     0.051759210937     1.007825032230
         H           -2.261019595948    -0.460624931070     0.882816926237     1.007825032230
         H           -2.348354501683    -0.422099066422    -0.905343336195     1.007825032230
         H            1.014857343959    -1.467466848684    -1.414666702954     1.007825032230
         H            0.858353531165    -0.493737643288     2.011334354892     1.007825032230

  Charge       = 0
  Multiplicity = 1
  Basis Set: 6-311G**
    Blend: 6-311G**
  Basis Set: (6-311G** AUX)
    Blend: CC-PVTZ-JKFIT

    Orbital Energies [Eh]
    ---------------------

    Doubly Occupied:

       1A    -80.119093     2A    -20.611150     3A    -20.608989
       4A    -20.597985     5A    -20.516227     6A    -11.301276
       7A     -7.642117     8A     -5.540351     9A     -5.540150
      10A     -5.539912    11A     -1.468499    12A     -1.395167
      13A     -1.394427    14A     -1.309483    15A     -0.973531
      16A     -0.856717    17A     -0.762407    18A     -0.723050
      19A     -0.686248    20A     -0.657143    21A     -0.644110
      22A     -0.636628    23A     -0.589881    24A     -0.568428
      25A     -0.550772    26A     -0.521558    27A     -0.497170
      28A     -0.476573    29A     -0.471330

  @DF-RHF Final Energy:  -681.16364855136635

   => Energetics <=

    Nuclear Repulsion Energy =            362.6768943353072245
    One-Electron Energy =               -1661.2803380105715405
    Two-Electron Energy =                 617.4397951238979658
    Total Energy =                       -681.1636485513663501

  Dipole Moment: [D]
     X:    -1.9879      Y:    -2.7565      Z:     1.0142     Total:     3.5467

  Basis Set: (6-311G** AUX)
    Blend: CC-PVTZ-RI
	 Reference Energy          =    -681.1636485513663501 [Eh]
	 Singles Energy            =      -0.0000000000000000 [Eh]
	 Same-Spin Energy          =      -0.2802014250713388 [Eh]
	 Opposite-Spin Energy      =      -0.7831992356962862 [Eh]
	 Correlation Energy        =      -1.0634006607676252 [Eh]
	 Total Energy              =    -682.2270492121339203 [Eh]

	 ================> DF-SCS-MP2 Energies <==================
	-----------------------------------------------------------
	 SCS Same-Spin Scale       =       0.3333333333333333 [-]
	 SCS Opposite-Spin Scale   =       1.2000000000000000 [-]
	 SCS Same-Spin Energy      =      -0.0934004750237796 [Eh]
	 SCS Opposite-Spin Energy  =      -0.9398390828355434 [Eh]
	 SCS Correlation Energy    =      -1.0332395578593230 [Eh]
	 SCS Total Energy          =    -682.1968881092257107 [Eh]
	-----------------------------------------------------------

*** Psi4 exiting successfully. Buy a developer a beer!
