                               Psi4 1.3.2 release

  ==> Input File <==

--------------------------------------------------------------------------
molecule {
0 1
 P    0.510800    0.049700   -0.008500
 O   -0.905700    0.829100   -0.093600
 O    0.391800   -1.088600   -1.150800
 O    0.379400   -0.789100    1.367700
 O    1.724000    0.928200   -0.101900
 C   -2.100200    0.070800   -0.013000
 H   -2.950000    0.753700   -0.092900
 H   -2.158500   -0.448900    0.946600
 H   -2.151600   -0.648800   -0.833800
 H    1.169800   -1.655700   -1.338500
 H    1.158900   -1.284500    1.697800
}
set {
 geom_maxiter 400
}
memory 20GB
set_num_threads(4)
psi4_io.set_default_path("/scratch/bdw2292")
optimize('wb97x-d/6-31G*')
clean()
--------------------------------------------------------------------------

    Molecular point group: c1
  Charge       = 0
  Multiplicity = 1
  Basis Set: 6-31G*
    Blend: 6-31G*
  Basis Set: (6-31G* AUX)
    Blend: CC-PVDZ-JKFIT
  @DF-RKS Final Energy:  -683.30522775944689
    Total Energy =                       -683.3052277594467796
    Molecular point group: c1
  Basis Set: 6-31G*
    Blend: 6-31G*
  Basis Set: (6-31G* AUX)
    Blend: CC-PVDZ-JKFIT
  Basis Set: 6-31G*
    Blend: 6-31G*
  Basis Set: (6-31G* AUX)
    Blend: CC-PVDZ-JKFIT
  @DF-RKS Final Energy:  -683.31111049308367
    Total Energy =                       -683.3111104930836746
  Basis Set: 6-31G*
    Blend: 6-31G*
  Basis Set: (6-31G* AUX)
    Blend: CC-PVDZ-JKFIT
  Basis Set: 6-31G*
    Blend: 6-31G*
  @DF-RKS Final Energy:  -683.31244260415565
    Total Energy =                       -683.3124426041557626
  @DF-RKS Final Energy:  -683.31337015804354
    Total Energy =                       -683.3133701580434263
  @DF-RKS Final Energy:  -683.31388629450601
    Total Energy =                       -683.3138862945060055
  @DF-RKS Final Energy:  -683.31421485845613
    Total Energy =                       -683.3142148584561255
  @DF-RKS Final Energy:  -683.31445930171265
    Total Energy =                       -683.3144593017126454
  @DF-RKS Final Energy:  -683.31466444914940
    Total Energy =                       -683.3146644491494044
  @DF-RKS Final Energy:  -683.31493322588187
    Total Energy =                       -683.3149332258818731
  @DF-RKS Final Energy:  -683.31514682645548
    Total Energy =                       -683.3151468264555888
  @DF-RKS Final Energy:  -683.31524817978357
    Total Energy =                       -683.3152481797836799
  @DF-RKS Final Energy:  -683.31533640354587
    Total Energy =                       -683.3153364035457571
  @DF-RKS Final Energy:  -683.31537938637348
    Total Energy =                       -683.3153793863733654
  @DF-RKS Final Energy:  -683.31539008604557
    Total Energy =                       -683.3153900860456815
  @DF-RKS Final Energy:  -683.31539412846041
    Total Energy =                       -683.3153941284602979
  @DF-RKS Final Energy:  -683.31539366755260
    Total Energy =                       -683.3153936675525983
  @DF-RKS Final Energy:  -683.31539581684569
    Total Energy =                       -683.3153958168456938
  @DF-RKS Final Energy:  -683.31539842680138
    Total Energy =                       -683.3153984268013801
  @DF-RKS Final Energy:  -683.31542723970858
    Total Energy =                       -683.3154272397085833
  @DF-RKS Final Energy:  -683.31545877167844
    Total Energy =                       -683.3154587716783226
  @DF-RKS Final Energy:  -683.31567070456731
    Total Energy =                       -683.3156707045674239
  @DF-RKS Final Energy:  -683.31568264616669
    Total Energy =                       -683.3156826461666924
  @DF-RKS Final Energy:  -683.31569453977045
    Total Energy =                       -683.3156945397704476
  @DF-RKS Final Energy:  -683.31570648974048
    Total Energy =                       -683.3157064897404780
  @DF-RKS Final Energy:  -683.31571843501195
    Total Energy =                       -683.3157184350119451
  @DF-RKS Final Energy:  -683.31575506568765
    Total Energy =                       -683.3157550656877675
  @DF-RKS Final Energy:  -683.31576438775676
    Total Energy =                       -683.3157643877567580
  @DF-RKS Final Energy:  -683.31579114623457
    Total Energy =                       -683.3157911462345737
  @DF-RKS Final Energy:  -683.31581564645899
    Total Energy =                       -683.3158156464589865
  @DF-RKS Final Energy:  -683.31584045266789
    Total Energy =                       -683.3158404526678851
  @DF-RKS Final Energy:  -683.31586346982306
    Total Energy =                       -683.3158634698230571
  @DF-RKS Final Energy:  -683.31586981659120
    Total Energy =                       -683.3158698165912028
  @DF-RKS Final Energy:  -683.31587599506565
    Total Energy =                       -683.3158759950656531
  @DF-RKS Final Energy:  -683.31589287366398
    Total Energy =                       -683.3158928736639837
  @DF-RKS Final Energy:  -683.31590949308270
    Total Energy =                       -683.3159094930825859
  @DF-RKS Final Energy:  -683.31592375368507
    Total Energy =                       -683.3159237536850696
  @DF-RKS Final Energy:  -683.31593588642534
    Total Energy =                       -683.3159358864253363
  @DF-RKS Final Energy:  -683.31594420453928
    Total Energy =                       -683.3159442045392780
  Basis Set: (6-31G* AUX)
    Blend: CC-PVDZ-JKFIT
  Basis Set: 6-31G*
    Blend: 6-31G*
  Basis Set: (6-31G* AUX)
    Blend: CC-PVDZ-JKFIT
  @DF-RKS Final Energy:  -683.31594561294833
    Total Energy =                       -683.3159456129483260
  Basis Set: 6-31G*
    Blend: 6-31G*
  Basis Set: (6-31G* AUX)
    Blend: CC-PVDZ-JKFIT
  Charge       = 0
  Multiplicity = 1
  Basis Set: 6-31G*
    Blend: 6-31G*
  Basis Set: (6-31G* AUX)
    Blend: CC-PVDZ-JKFIT

    Orbital Energies [Eh]
    ---------------------

    Doubly Occupied:

       1A    -77.398223     2A    -19.319322     3A    -19.316413
       4A    -19.311173     5A    -19.236693     6A    -10.360140
       7A     -6.806428     8A     -4.955933     9A     -4.955701
      10A     -4.953682    11A     -1.210621    12A     -1.145778
      13A     -1.144551    14A     -1.066189    15A     -0.821224
      16A     -0.732255    17A     -0.652143    18A     -0.620618
      19A     -0.571436    20A     -0.553881    21A     -0.539794
      22A     -0.527056    23A     -0.477213    24A     -0.464442
      25A     -0.445014    26A     -0.431859    27A     -0.402683
      28A     -0.386515    29A     -0.379330

  @DF-RKS Final Energy:  -683.31594595530885

   => Energetics <=

    Nuclear Repulsion Energy =            362.6768943353282566
    One-Electron Energy =               -1662.1015644289511783
    Two-Electron Energy =                 662.2343577093639624
    DFT Exchange-Correlation Energy =     -46.1221234714961810
    Empirical Dispersion Energy =          -0.0035100995537806
    VV10 Nonlocal Energy =                  0.0000000000000000
    Total Energy =                       -683.3159459553087345

  Dipole Moment: [D]
     X:    -1.6702      Y:    -2.5028      Z:     0.9495     Total:     3.1551

    Molecular point group: c1
  Basis Set: 6-31G*
    Blend: 6-31G*
  Basis Set: (6-31G* AUX)
    Blend: CC-PVDZ-JKFIT

  -Total Gradient:
     Atom            X                  Y                   Z
    ------   -----------------  -----------------  -----------------
       1       -0.000069144698    -0.000034524788    -0.000081508190
       2       -0.000048814394    -0.000019533667     0.000027197340
       3       -0.000160522014    -0.000255982150     0.000203223621
       4       -0.000100787779    -0.000087887637    -0.000002843378
       5       -0.000040242651    -0.000125425905     0.000006817210
       6       -0.000087919424    -0.000053101083    -0.000011594491
       7       -0.000066302643    -0.000028591723     0.000015230964
       8       -0.000077404081    -0.000038638356     0.000015566837
       9       -0.000088201968    -0.000039679859     0.000013869652
      10       -0.000058664094     0.000074407409    -0.000135148465
      11       -0.000094344242    -0.000046774130     0.000013938304

  **** Optimization is complete! (in 52 steps) ****
    Final optimized geometry and variables:
    Molecular point group: c1

    Geometry (in Angstrom), charge = 0, multiplicity = 1:

    P            0.419913234641     0.060155011405    -0.012430079510
    O           -0.950521903287     0.860595407344    -0.054199870158
    O            0.194925253532    -1.009264329926    -1.189076133835
    O            0.336845185324    -0.884885831247     1.297506259683
    O            1.620393974227     0.902290569073    -0.067180458076
    C           -2.206150228969     0.178551990366    -0.003221203191
    H           -2.971830730429     0.952438000609     0.051759210937
    H           -2.261019595948    -0.460624931070     0.882816926237
    H           -2.348354501683    -0.422099066422    -0.905343336195
    H            1.014857343959    -1.467466848684    -1.414666702954
    H            0.858353531165    -0.493737643288     2.011334354892

*** Psi4 exiting successfully. Buy a developer a beer!
