                               Psi4 1.3.2 release

  ==> Input File <==

--------------------------------------------------------------------------
molecule {
0 1
P            0.419913234641     0.060155011405    -0.012430079510
O           -0.950521903287     0.860595407344    -0.054199870158
O            0.194925253532    -1.009264329926    -1.189076133835
O            0.336845185324    -0.884885831247     1.297506259683
O            1.620393974227     0.902290569073    -0.067180458076
C           -2.206150228969     0.178551990366    -0.003221203191
H           -2.971830730429     0.952438000609     0.051759210937
H           -2.261019595948    -0.460624931070     0.882816926237
H           -2.348354501683    -0.422099066422    -0.905343336195
H            1.014857343959    -1.467466848684    -1.414666702954
H            0.858353531165    -0.493737643288     2.011334354892
}
memory 20GB
set_num_threads(4)
psi4_io.set_default_path("/scratch/bdw2292")
set freeze_core True
set PROPERTIES_ORIGIN ["COM"]
E, wfn = properties('mp2/6-311++G(2d,2p)',properties=['dipole'],return_wfn=True)
oeprop(wfn,"GRID_ESP","WIBERG_LOWDIN_INDICES")
clean()
--------------------------------------------------------------------------

    Molecular point group: c1
  Charge       = 0
  Multiplicity = 1
  Basis Set: 6-311++G(2D,2P)
    Blend: 6-311++G(2D,2P)
  Basis Set: (6-311++G(2D,2P) AUX)
    Blend: AUG-CC-PVTZ-JKFIT

    Orbital Energies [Eh]
    ---------------------

    Doubly Occupied:

       1A    -80.111449     2A    -20.615037     3A    -20.612167
       4A    -20.602294     5A    -20.522686     6A    -11.300590
       7A     -7.631262     8A     -5.530272     9A     -5.530016
      10A     -5.529272    11A     -1.465601    12A     -1.394697
      13A     -1.393094    14A     -1.308714    15A     -0.973352
      16A     -0.855092    17A     -0.761517    18A     -0.723387
      19A     -0.686932    20A     -0.657711    21A     -0.645158
      22A     -0.638149    23A     -0.590051    24A     -0.571027
      25A     -0.552197    26A     -0.523397    27A     -0.497404
      28A     -0.478547    29A     -0.473182

  @DF-RHF Final Energy:  -681.21109347141862

   => Energetics <=

    Nuclear Repulsion Energy =            362.6768943353072245
    One-Electron Energy =               -1661.4274660097557899
    Two-Electron Energy =                 617.5394782030299439
    Total Energy =                       -681.2110934714186214
  Basis Set: (6-311++G(2D,2P) AUX)
    Blend: AUG-CC-PVTZ-RI
    Molecular point group: c1

    Geometry (in Angstrom), charge = 0, multiplicity = 1:

       Center              X                  Y                   Z               Mass
    ------------   -----------------  -----------------  -----------------  -----------------
         P            0.419913234641     0.060155011405    -0.012430079510    30.973761998420
         O           -0.950521903287     0.860595407344    -0.054199870158    15.994914619570
         O            0.194925253532    -1.009264329926    -1.189076133835    15.994914619570
         O            0.336845185324    -0.884885831247     1.297506259683    15.994914619570
         O            1.620393974227     0.902290569073    -0.067180458076    15.994914619570
         C           -2.206150228969     0.178551990366    -0.003221203191    12.000000000000
         H           -2.971830730429     0.952438000609     0.051759210937     1.007825032230
         H           -2.261019595948    -0.460624931070     0.882816926237     1.007825032230
         H           -2.348354501683    -0.422099066422    -0.905343336195     1.007825032230
         H            1.014857343959    -1.467466848684    -1.414666702954     1.007825032230
         H            0.858353531165    -0.493737643288     2.011334354892     1.007825032230

  Basis Set: 6-311++G(2D,2P)
    Blend: 6-311++G(2D,2P)
  Basis Set: (6-311++G(2D,2P) AUX)
    Blend: AUG-CC-PVTZ-JKFIT
	 Reference Energy          =    -681.2110934714186214 [Eh]
	 Singles Energy            =      -0.0000000000000000 [Eh]
	 Same-Spin Energy          =      -0.3079721599800660 [Eh]
	 Opposite-Spin Energy      =      -0.8554349123186125 [Eh]
	 Correlation Energy        =      -1.1634070722986785 [Eh]
	 Total Energy              =    -682.3745005437173177 [Eh]

	 ================> DF-SCS-MP2 Energies <==================
	-----------------------------------------------------------
	 SCS Same-Spin Scale       =       0.3333333333333333 [-]
	 SCS Opposite-Spin Scale   =       1.2000000000000000 [-]
	 SCS Same-Spin Energy      =      -0.1026573866600220 [Eh]
	 SCS Opposite-Spin Energy  =      -1.0265218947823349 [Eh]
	 SCS Correlation Energy    =      -1.1291792814423569 [Eh]
	 SCS Total Energy          =    -682.3402727528609830 [Eh]
	-----------------------------------------------------------

  Dipole Moment: [D]
     X:    -1.8900      Y:    -2.4197      Z:     0.8509     Total:     3.1861

*** Psi4 exiting successfully. Buy a developer a beer!
