 Gaussian 09, Revision A.02,
 Gaussian 09:  EM64L-G09RevA.02 11-Jun-2009

 --------------------------------------------
 #P MP2/6-311G** Sp Density=MP2 MaxDisk=100GB
 --------------------------------------------

 --------------------------------------------------------------------
 DiMethylPhosphate0H Gaussian SP Calculation on node37.bme.utexas.edu
 --------------------------------------------------------------------
 Symbolic Z-matrix:
 Charge = -1 Multiplicity = 1

                         Standard orientation:
 ---------------------------------------------------------------------
 Center     Atomic      Atomic             Coordinates (Angstroms)
 Number     Number       Type             X           Y           Z
 ---------------------------------------------------------------------
      1         15           0       -0.000035    0.629986    0.000055
      2          8           0       -0.968316   -0.420820   -0.821276
      3          8           0        0.968621   -0.420458    0.821182
      4          8           0       -0.786270    1.353016    1.049788
      5          8           0        0.785375    1.353700   -1.049681
      6          6           0       -1.798100   -1.277578   -0.054213
      7          6           0        1.798637   -1.276947    0.054134
      8          1           0       -1.197740   -1.951334    0.569402
      9          1           0       -2.393157   -1.872277   -0.751518
     10          1           0       -2.467037   -0.700544    0.593441
     11          1           0        2.466958   -0.699641   -0.593946
     12          1           0        1.198546   -1.951275   -0.569128
     13          1           0        2.394450   -1.871070    0.751296
 ---------------------------------------------------------------------

 SCF Done:  E(RHF) =  -719.640555832     A.U. after   12 cycles
 E2 =    -0.1214890785D+01 EUMP2 =    -0.72085544661688D+03

 The electronic state is 1-A.
 Alpha  occ. eigenvalues --  -79.87147 -20.39758 -20.39751 -20.28688 -20.28684
 Alpha  occ. eigenvalues --  -11.13833 -11.13829  -7.39466  -5.29315  -5.29260
 Alpha  occ. eigenvalues --   -5.29210  -1.24235  -1.19130  -1.09727  -1.05468
 Alpha  occ. eigenvalues --   -0.79566  -0.78632  -0.59267  -0.52725  -0.50489
 Alpha  occ. eigenvalues --   -0.48384  -0.46911  -0.46149  -0.41496  -0.37037
 Alpha  occ. eigenvalues --   -0.36745  -0.32358  -0.30957  -0.30223  -0.27766
 Alpha  occ. eigenvalues --   -0.26010  -0.23955  -0.22371
 Alpha virt. eigenvalues --    0.28274   0.30260   0.34756   0.35201   0.36726
 Alpha virt. eigenvalues --    0.37931   0.40793   0.43566   0.45090   0.47335
 Alpha virt. eigenvalues --    0.50628   0.57189   0.58815   0.60386   0.62359

 Mulliken atomic charges:
              1
     1  P    1.214240
     2  O   -0.561537
     3  O   -0.561469
     4  O   -0.702126
     5  O   -0.702049
     6  C   -0.064184
     7  C   -0.064187
     8  H    0.068710
     9  H    0.058086
    10  H    0.093842
    11  H    0.093835
    12  H    0.068732
    13  H    0.058107
 Sum of Mulliken atomic charges =  -1.00000

 Dipole moment (field-independent basis, Debye):
    X=              0.0034    Y=             -6.3464    Z=             -0.0001  Tot=              6.3464
 Quadrupole moment (field-independent basis, Debye-Ang):
   XX=            -53.5646   YY=            -60.3407   ZZ=            -61.5044
   XY=              0.0013   XZ=              2.4214   YZ=              0.0009

 Normal termination of Gaussian 09 at Thu Apr  2 11:08:22 2020.
