 Gaussian 09, Revision A.02,
 Gaussian 09:  EM64L-G09RevA.02 11-Jun-2009

 ----------------------------------------------------------------------
 #P MP2/6-311++G(2d,2p) Sp Density=MP2 SCF=Save Guess=Huckel MaxDisk=10
 0GB Pop=NBORead
 ----------------------------------------------------------------------

 --------------------------------------------------------------------
 DiMethylPhosphate0H Gaussian SP Calculation on node37.bme.utexas.edu
 --------------------------------------------------------------------
 Symbolic Z-matrix:
 Charge = -1 Multiplicity = 1

                         Standard orientation:
 ---------------------------------------------------------------------
 Center     Atomic      Atomic             Coordinates (Angstroms)
 Number     Number       Type             X           Y           Z
 ---------------------------------------------------------------------
      1         15           0       -0.000035    0.629986    0.000055
      2          8           0       -0.968316   -0.420820   -0.821276
      3          8           0        0.968621   -0.420458    0.821182
      4          8           0       -0.786270    1.353016    1.049788
      5          8           0        0.785375    1.353700   -1.049681
      6          6           0       -1.798100   -1.277578   -0.054213
      7          6           0        1.798637   -1.276947    0.054134
      8          1           0       -1.197740   -1.951334    0.569402
      9          1           0       -2.393157   -1.872277   -0.751518
     10          1           0       -2.467037   -0.700544    0.593441
     11          1           0        2.466958   -0.699641   -0.593946
     12          1           0        1.198546   -1.951275   -0.569128
     13          1           0        2.394450   -1.871070    0.751296
 ---------------------------------------------------------------------

 SCF Done:  E(RHF) =  -719.692741153     A.U. after   13 cycles
 E2 =    -0.1333755575D+01 EUMP2 =    -0.72102649672798D+03

 The electronic state is 1-A.
 Alpha  occ. eigenvalues --  -79.87103 -20.40512 -20.40505 -20.30301 -20.30299
 Alpha  occ. eigenvalues --  -11.13782 -11.13778  -7.39106  -5.29056  -5.28967
 Alpha  occ. eigenvalues --   -5.28864  -1.24399  -1.19383  -1.10386  -1.06264
 Alpha  occ. eigenvalues --   -0.79617  -0.78681  -0.59548  -0.52992  -0.50637
 Alpha  occ. eigenvalues --   -0.48613  -0.47138  -0.46236  -0.42244  -0.37563
 Alpha  occ. eigenvalues --   -0.36998  -0.33220  -0.31262  -0.30509  -0.28706
 Alpha  occ. eigenvalues --   -0.26688  -0.24878  -0.23344
 Alpha virt. eigenvalues --    0.13249   0.14386   0.16323   0.17817   0.18228
 Alpha virt. eigenvalues --    0.20193   0.22473   0.23308   0.24702   0.25347
 Alpha virt. eigenvalues --    0.26705   0.27224   0.27910   0.27988   0.29282

 Mulliken atomic charges:
              1
     1  P    1.386769
     2  O   -0.568532
     3  O   -0.568511
     4  O   -0.757352
     5  O   -0.757202
     6  C   -0.091190
     7  C   -0.091169
     8  H    0.073107
     9  H    0.057502
    10  H    0.092972
    11  H    0.092953
    12  H    0.073137
    13  H    0.057516
 Sum of Mulliken atomic charges =  -1.00000

 Dipole moment (field-independent basis, Debye):
    X=              0.0033    Y=             -6.3356    Z=             -0.0001  Tot=              6.3356
 Quadrupole moment (field-independent basis, Debye-Ang):
   XX=            -54.5924   YY=            -61.4421   ZZ=            -62.5519
   XY=              0.0012   XZ=              2.7148   YZ=              0.0006

 Summary of Natural Population Analysis:

                                       Natural Population
                Natural  -----------------------------------------------
    Atom  No    Charge         Core      Valence    Rydberg      Total
 -----------------------------------------------------------------------
      P    1    2.48623      9.99815     2.31960    0.19601    12.51377
      O    2   -0.86562      1.99963     6.77052    0.09547     8.86562
      O    3   -0.86559      1.99963     6.77050    0.09547     8.86559
      O    4   -1.15768      1.99961     7.05083    0.10725     9.15768
      O    5   -1.15765      1.99961     7.05079    0.10725     9.15765
      C    6   -0.17458      1.99914     4.11503    0.06040     6.17458
      C    7   -0.17458      1.99914     4.11503    0.06040     6.17458
      H    8    0.14681      0.00000     0.84629    0.00690     0.85319
      H    9    0.14179      0.00000     0.85216    0.00605     0.85821
      H   10    0.16612      0.00000     0.82528    0.00860     0.83388
      H   11    0.16612      0.00000     0.82528    0.00860     0.83388
      H   12    0.14682      0.00000     0.84628    0.00690     0.85318
      H   13    0.14180      0.00000     0.85215    0.00605     0.85820
 =======================================================================
   * Total *   -1.00000     21.99492    43.23975    0.76533    66.00000

 Normal termination of Gaussian 09 at Thu Apr  2 11:14:36 2020.
