 Gaussian 09, Revision A.02,
 Gaussian 09:  EM64L-G09RevA.02 11-Jun-2009

 ----------------------------------------------------------------------
 #P opt=(maxcycle=400) wB97XD/6-31G* Guess=INDO MaxDisk=100GB SCRF=(PCM
 )
 ----------------------------------------------------------------------

 ---------------------------------------------------------------------
 DiMethylPhosphate0H Gaussian OPT Calculation on node37.bme.utexas.edu
 ---------------------------------------------------------------------
 Symbolic Z-matrix:
 Charge = -1 Multiplicity = 1

 SCF Done:  E(RwB97XD) =  -722.142041606     A.U. after   15 cycles
 SCF Done:  E(RwB97XD) =  -722.159998794     A.U. after   12 cycles
 SCF Done:  E(RwB97XD) =  -722.163001977     A.U. after   14 cycles
 SCF Done:  E(RwB97XD) =  -722.163672167     A.U. after   11 cycles
 SCF Done:  E(RwB97XD) =  -722.163720446     A.U. after   10 cycles
 SCF Done:  E(RwB97XD) =  -722.163734715     A.U. after   14 cycles
 SCF Done:  E(RwB97XD) =  -722.163737789     A.U. after    8 cycles
 SCF Done:  E(RwB97XD) =  -722.163739258     A.U. after    8 cycles
 Optimization completed.
    -- Stationary point found.

                         Standard orientation:
 ---------------------------------------------------------------------
 Center     Atomic      Atomic             Coordinates (Angstroms)
 Number     Number       Type             X           Y           Z
 ---------------------------------------------------------------------
      1         15           0        0.000035   -0.629986    0.000055
      2          8           0        0.968316    0.420820   -0.821276
      3          8           0       -0.968621    0.420458    0.821182
      4          8           0        0.786270   -1.353016    1.049788
      5          8           0       -0.785375   -1.353700   -1.049681
      6          6           0        1.798100    1.277578   -0.054213
      7          6           0       -1.798637    1.276947    0.054134
      8          1           0        1.197740    1.951334    0.569402
      9          1           0        2.393157    1.872277   -0.751518
     10          1           0        2.467037    0.700544    0.593441
     11          1           0       -2.466958    0.699641   -0.593946
     12          1           0       -1.198546    1.951275   -0.569128
     13          1           0       -2.394450    1.871070    0.751296
 ---------------------------------------------------------------------

 The electronic state is 1-A.
 Alpha  occ. eigenvalues --  -77.32371 -19.26230 -19.26225 -19.18698 -19.18695
 Alpha  occ. eigenvalues --  -10.32863 -10.32861  -6.73178  -4.88232  -4.88072
 Alpha  occ. eigenvalues --   -4.87856  -1.14277  -1.09378  -1.02981  -0.99230
 Alpha  occ. eigenvalues --   -0.77905  -0.76838  -0.62502  -0.57426  -0.54189
 Alpha  occ. eigenvalues --   -0.53231  -0.51734  -0.50520  -0.48115  -0.43789
 Alpha  occ. eigenvalues --   -0.42506  -0.39620  -0.36668  -0.36285  -0.36198
 Alpha  occ. eigenvalues --   -0.33891  -0.32722  -0.31420
 Alpha virt. eigenvalues --    0.17470   0.21870   0.21918   0.23101   0.24219
 Alpha virt. eigenvalues --    0.25760   0.26197   0.28185   0.30037   0.31172
 Alpha virt. eigenvalues --    0.33344   0.33484   0.44274   0.45601   0.51015

 Mulliken atomic charges:
              1
     1  P    1.077023
     2  O   -0.580083
     3  O   -0.579977
     4  O   -0.702518
     5  O   -0.702394
     6  C   -0.257986
     7  C   -0.258023
     8  H    0.161909
     9  H    0.174781
    10  H    0.165253
    11  H    0.165261
    12  H    0.161939
    13  H    0.174814
 Sum of Mulliken atomic charges =  -1.00000

 Dipole moment (field-independent basis, Debye):
    X=             -0.0041    Y=              7.9400    Z=             -0.0001  Tot=              7.9400
 Quadrupole moment (field-independent basis, Debye-Ang):
   XX=            -49.0971   YY=            -56.6793   ZZ=            -59.5986
   XY=              0.0015   XZ=             -2.6326   YZ=             -0.0009

 Normal termination of Gaussian 09 at Thu Apr  2 11:04:43 2020.
