                               Psi4 1.3.2 release

  ==> Input File <==

--------------------------------------------------------------------------
molecule {
0 1
 P    0.134400   -0.066500   -0.429400
 O    1.366500    0.723500    0.265800
 O   -0.435000   -0.985300    0.777400
 O   -1.002800    1.067800   -0.645300
 O    0.499700   -0.824300   -1.674300
 C    2.486200   -0.025800    0.706000
 C   -1.609900   -1.745100    0.550700
 C   -1.439300    1.855700    0.449100
 H    2.910500   -0.589800   -0.128700
 H    2.187800   -0.709600    1.504700
 H    3.240800    0.664500    1.090800
 H   -2.441300   -1.089100    0.281500
 H   -1.862200   -2.282400    1.468100
 H   -1.434000   -2.468300   -0.249800
 H   -1.843600    1.221300    1.241300
 H   -2.225000    2.530700    0.101100
 H   -0.608200    2.450500    0.836600
}
set {
 geom_maxiter 400
}
memory 20GB
set_num_threads(4)
psi4_io.set_default_path("/scratch/bdw2292")
optimize('wb97x-d/6-31G*')
clean()
--------------------------------------------------------------------------

    Molecular point group: c1
  Charge       = 0
  Multiplicity = 1
  Basis Set: 6-31G*
    Blend: 6-31G*
  Basis Set: (6-31G* AUX)
    Blend: CC-PVDZ-JKFIT
  @DF-RKS Final Energy:  -761.89393836860302
    Total Energy =                       -761.8939383686030169
    Molecular point group: c1
  Basis Set: 6-31G*
    Blend: 6-31G*
  Basis Set: (6-31G* AUX)
    Blend: CC-PVDZ-JKFIT
  Basis Set: 6-31G*
    Blend: 6-31G*
  Basis Set: (6-31G* AUX)
    Blend: CC-PVDZ-JKFIT
  @DF-RKS Final Energy:  -761.89810861354044
    Total Energy =                       -761.8981086135404439
  Basis Set: 6-31G*
    Blend: 6-31G*
  Basis Set: (6-31G* AUX)
    Blend: CC-PVDZ-JKFIT
  Basis Set: 6-31G*
    Blend: 6-31G*
  @DF-RKS Final Energy:  -761.89866803217001
    Total Energy =                       -761.8986680321700078
  @DF-RKS Final Energy:  -761.89893299144239
    Total Energy =                       -761.8989329914423934
  @DF-RKS Final Energy:  -761.89911292690113
    Total Energy =                       -761.8991129269011253
  @DF-RKS Final Energy:  -761.89917922794518
    Total Energy =                       -761.8991792279451829
  @DF-RKS Final Energy:  -761.89922802055412
    Total Energy =                       -761.8992280205541192
  @DF-RKS Final Energy:  -761.89926287962942
    Total Energy =                       -761.8992628796294184
  @DF-RKS Final Energy:  -761.89925369534399
    Total Energy =                       -761.8992536953439867
  @DF-RKS Final Energy:  -761.89926624058228
    Total Energy =                       -761.8992662405822784
  Basis Set: (6-31G* AUX)
    Blend: CC-PVDZ-JKFIT
  Basis Set: 6-31G*
    Blend: 6-31G*
  Basis Set: (6-31G* AUX)
    Blend: CC-PVDZ-JKFIT
  @DF-RKS Final Energy:  -761.89926447221001
    Total Energy =                       -761.8992644722100067
  Basis Set: 6-31G*
    Blend: 6-31G*
  Basis Set: (6-31G* AUX)
    Blend: CC-PVDZ-JKFIT
  Charge       = 0
  Multiplicity = 1
  Basis Set: 6-31G*
    Blend: 6-31G*
  Basis Set: (6-31G* AUX)
    Blend: CC-PVDZ-JKFIT

    Orbital Energies [Eh]
    ---------------------

    Doubly Occupied:

       1A    -77.385837     2A    -19.307574     3A    -19.305916
       4A    -19.305656     5A    -19.228526     6A    -10.356888
       7A    -10.356242     8A    -10.355736     9A     -6.794468
      10A     -4.944063    11A     -4.943751    12A     -4.941562
      13A     -1.204419    14A     -1.141261    15A     -1.140031
      16A     -1.058330    17A     -0.834507    18A     -0.804523
      19A     -0.798931    20A     -0.671873    21A     -0.617602
      22A     -0.615121    23A     -0.574871    24A     -0.563710
      25A     -0.559191    26A     -0.540508    27A     -0.535145
      28A     -0.531590    29A     -0.489851    30A     -0.456451
      31A     -0.439427    32A     -0.429688    33A     -0.409991
      34A     -0.404334    35A     -0.391941    36A     -0.375589
      37A     -0.367680

  @DF-RKS Final Energy:  -761.89926502202195

   => Energetics <=

    Nuclear Repulsion Energy =            550.9116782873064722
    One-Electron Energy =               -2142.1047351279908071
    Two-Electron Energy =                 883.7760796341282230
    DFT Exchange-Correlation Energy =     -54.4748839757530376
    Empirical Dispersion Energy =          -0.0074038397128830
    VV10 Nonlocal Energy =                  0.0000000000000000
    Total Energy =                       -761.8992650220219502

  Dipole Moment: [D]
     X:    -0.6246      Y:     0.2283      Z:     3.8278     Total:     3.8852

    Molecular point group: c1
  Basis Set: 6-31G*
    Blend: 6-31G*
  Basis Set: (6-31G* AUX)
    Blend: CC-PVDZ-JKFIT

  -Total Gradient:
     Atom            X                  Y                   Z
    ------   -----------------  -----------------  -----------------
       1       -0.000037963091     0.000007874241     0.000052332045
       2        0.000001647114     0.000067580572     0.000062844229
       3       -0.000016735361     0.000057886395     0.000017495716
       4       -0.000016249975     0.000055806801     0.000053196583
       5       -0.000032706156     0.000056656724     0.000035512655
       6       -0.000008015777     0.000004094879     0.000020446587
       7       -0.000049548676     0.000028869234     0.000023278399
       8       -0.000025922087     0.000042159871     0.000082726579
       9       -0.000029149590     0.000026253249     0.000022091759
      10       -0.000014900236     0.000008570037     0.000027324842
      11       -0.000018556656     0.000009675236     0.000041888926
      12       -0.000015164151     0.000032344566     0.000041284579
      13       -0.000026359084     0.000042813000     0.000013038136
      14       -0.000052334772     0.000053347463     0.000029919384
      15       -0.000006437208     0.000042827552     0.000070423794
      16       -0.000003616124     0.000051690257     0.000089215828
      17        0.000001151675     0.000025006427     0.000069344867

  **** Optimization is complete! (in 12 steps) ****
    Final optimized geometry and variables:
    Molecular point group: c1

    Geometry (in Angstrom), charge = 0, multiplicity = 1:

    P            0.076841190826    -0.045011195896    -0.383145987314
    O            1.296605108164     0.689088098096     0.342370112566
    O           -0.512129908448    -0.905027729164     0.845780375692
    O           -0.940934753666     1.162239501963    -0.595660548080
    O            0.346529585859    -0.811581082069    -1.606283164122
    C            2.415480568258    -0.096639881587     0.757608758996
    C           -1.471623387436    -1.922490902827     0.551595869788
    C           -1.293446594222     2.012749929349     0.496914353216
    H            2.812871278381    -0.669963777699    -0.084577989523
    H            2.122281661029    -0.772460356089     1.566310538917
    H            3.169451597461     0.604186588517     1.116673095837
    H           -2.396542385608    -1.478943705430     0.168437738883
    H           -1.675885445352    -2.435167052644     1.492200331663
    H           -1.072517385701    -2.625122481101    -0.183811202012
    H           -1.646312592870     1.423265989913     1.348485055338
    H           -2.094889829895     2.658681375731     0.137484939093
    H           -0.434086285942     2.616755603631     0.798612629981

*** Psi4 exiting successfully. Buy a developer a beer!
