                               Psi4 1.3.2 release

  ==> Input File <==

--------------------------------------------------------------------------
molecule {
0 1
P            0.076841190826    -0.045011195896    -0.383145987314
O            1.296605108164     0.689088098096     0.342370112566
O           -0.512129908448    -0.905027729164     0.845780375692
O           -0.940934753666     1.162239501963    -0.595660548080
O            0.346529585859    -0.811581082069    -1.606283164122
C            2.415480568258    -0.096639881587     0.757608758996
C           -1.471623387436    -1.922490902827     0.551595869788
C           -1.293446594222     2.012749929349     0.496914353216
H            2.812871278381    -0.669963777699    -0.084577989523
H            2.122281661029    -0.772460356089     1.566310538917
H            3.169451597461     0.604186588517     1.116673095837
H           -2.396542385608    -1.478943705430     0.168437738883
H           -1.675885445352    -2.435167052644     1.492200331663
H           -1.072517385701    -2.625122481101    -0.183811202012
H           -1.646312592870     1.423265989913     1.348485055338
H           -2.094889829895     2.658681375731     0.137484939093
H           -0.434086285942     2.616755603631     0.798612629981
}
memory 20GB
set_num_threads(4)
psi4_io.set_default_path("/scratch/bdw2292")
set freeze_core True
set PROPERTIES_ORIGIN ["COM"]
E, wfn = energy('mp2/6-311G**',properties=['dipole'],return_wfn=True)
fchk(wfn, "TrimethylPhosphate-dma.fchk")
clean()
--------------------------------------------------------------------------

    Molecular point group: c1

    Geometry (in Angstrom), charge = 0, multiplicity = 1:

       Center              X                  Y                   Z               Mass
    ------------   -----------------  -----------------  -----------------  -----------------
         P            0.076841190826    -0.045011195896    -0.383145987314    30.973761998420
         O            1.296605108164     0.689088098096     0.342370112566    15.994914619570
         O           -0.512129908448    -0.905027729164     0.845780375692    15.994914619570
         O           -0.940934753666     1.162239501963    -0.595660548080    15.994914619570
         O            0.346529585859    -0.811581082069    -1.606283164122    15.994914619570
         C            2.415480568258    -0.096639881587     0.757608758996    12.000000000000
         C           -1.471623387436    -1.922490902827     0.551595869788    12.000000000000
         C           -1.293446594222     2.012749929349     0.496914353216    12.000000000000
         H            2.812871278381    -0.669963777699    -0.084577989523     1.007825032230
         H            2.122281661029    -0.772460356089     1.566310538917     1.007825032230
         H            3.169451597461     0.604186588517     1.116673095837     1.007825032230
         H           -2.396542385608    -1.478943705430     0.168437738883     1.007825032230
         H           -1.675885445352    -2.435167052644     1.492200331663     1.007825032230
         H           -1.072517385701    -2.625122481101    -0.183811202012     1.007825032230
         H           -1.646312592870     1.423265989913     1.348485055338     1.007825032230
         H           -2.094889829895     2.658681375731     0.137484939093     1.007825032230
         H           -0.434086285942     2.616755603631     0.798612629981     1.007825032230

  Charge       = 0
  Multiplicity = 1
  Basis Set: 6-311G**
    Blend: 6-311G**
  Basis Set: (6-311G** AUX)
    Blend: CC-PVTZ-JKFIT

    Orbital Energies [Eh]
    ---------------------

    Doubly Occupied:

       1A    -80.104367     2A    -20.592822     3A    -20.592545
       4A    -20.590194     5A    -20.505936     6A    -11.297022
       7A    -11.296855     8A    -11.295541     9A     -7.627645
      10A     -5.525934    11A     -5.525699    12A     -5.525355
      13A     -1.460074    14A     -1.388625    15A     -1.387954
      16A     -1.299261    17A     -0.986873    18A     -0.956595
      19A     -0.951284    20A     -0.790691    21A     -0.721992
      22A     -0.719410    23A     -0.679939    24A     -0.666559
      25A     -0.655300    26A     -0.633271    27A     -0.623746
      28A     -0.618991    29A     -0.584981    30A     -0.541055
      31A     -0.527026    32A     -0.515797    33A     -0.497783
      34A     -0.492449    35A     -0.482596    36A     -0.463586
      37A     -0.457181

  @DF-RHF Final Energy:  -759.22215073044833

   => Energetics <=

    Nuclear Repulsion Energy =            550.9116782873101101
    One-Electron Energy =               -2141.1017908221670041
    Two-Electron Energy =                 830.9679618044084464
    Total Energy =                       -759.2221507304483339

  Dipole Moment: [D]
     X:    -0.6937      Y:     0.2067      Z:     4.2759     Total:     4.3368

  Basis Set: (6-311G** AUX)
    Blend: CC-PVTZ-RI
	 Reference Energy          =    -759.2221507304483339 [Eh]
	 Singles Energy            =      -0.0000000000000000 [Eh]
	 Same-Spin Energy          =      -0.3438031397412321 [Eh]
	 Opposite-Spin Energy      =      -1.0114515978936149 [Eh]
	 Correlation Energy        =      -1.3552547376348469 [Eh]
	 Total Energy              =    -760.5774054680831568 [Eh]

	 ================> DF-SCS-MP2 Energies <==================
	-----------------------------------------------------------
	 SCS Same-Spin Scale       =       0.3333333333333333 [-]
	 SCS Opposite-Spin Scale   =       1.2000000000000000 [-]
	 SCS Same-Spin Energy      =      -0.1146010465804107 [Eh]
	 SCS Opposite-Spin Energy  =      -1.2137419174723378 [Eh]
	 SCS Correlation Energy    =      -1.3283429640527484 [Eh]
	 SCS Total Energy          =    -760.5504936945010286 [Eh]
	-----------------------------------------------------------

*** Psi4 exiting successfully. Buy a developer a beer!
