                               Psi4 1.3.2 release

  ==> Input File <==

--------------------------------------------------------------------------
molecule {
0 1
P            0.076841190826    -0.045011195896    -0.383145987314
O            1.296605108164     0.689088098096     0.342370112566
O           -0.512129908448    -0.905027729164     0.845780375692
O           -0.940934753666     1.162239501963    -0.595660548080
O            0.346529585859    -0.811581082069    -1.606283164122
C            2.415480568258    -0.096639881587     0.757608758996
C           -1.471623387436    -1.922490902827     0.551595869788
C           -1.293446594222     2.012749929349     0.496914353216
H            2.812871278381    -0.669963777699    -0.084577989523
H            2.122281661029    -0.772460356089     1.566310538917
H            3.169451597461     0.604186588517     1.116673095837
H           -2.396542385608    -1.478943705430     0.168437738883
H           -1.675885445352    -2.435167052644     1.492200331663
H           -1.072517385701    -2.625122481101    -0.183811202012
H           -1.646312592870     1.423265989913     1.348485055338
H           -2.094889829895     2.658681375731     0.137484939093
H           -0.434086285942     2.616755603631     0.798612629981
}
memory 20GB
set_num_threads(4)
psi4_io.set_default_path("/scratch/bdw2292")
set freeze_core True
set PROPERTIES_ORIGIN ["COM"]
E, wfn = properties('mp2/6-311++G(2d,2p)',properties=['dipole'],return_wfn=True)
oeprop(wfn,"GRID_ESP","WIBERG_LOWDIN_INDICES")
clean()
--------------------------------------------------------------------------

    Molecular point group: c1
  Charge       = 0
  Multiplicity = 1
  Basis Set: 6-311++G(2D,2P)
    Blend: 6-311++G(2D,2P)
  Basis Set: (6-311++G(2D,2P) AUX)
    Blend: AUG-CC-PVTZ-JKFIT

    Orbital Energies [Eh]
    ---------------------

    Doubly Occupied:

       1A    -80.096037     2A    -20.595541     3A    -20.594632
       4A    -20.594024     5A    -20.511822     6A    -11.294830
       7A    -11.294481     8A    -11.293829     9A     -7.616277
      10A     -5.515319    11A     -5.515073    12A     -5.514139
      13A     -1.456900    14A     -1.387278    15A     -1.386743
      16A     -1.298508    17A     -0.984965    18A     -0.955689
      19A     -0.949887    20A     -0.789888    21A     -0.721556
      22A     -0.718664    23A     -0.679258    24A     -0.666228
      25A     -0.655333    26A     -0.633161    27A     -0.623232
      28A     -0.619161    29A     -0.587318    30A     -0.540117
      31A     -0.527902    32A     -0.516464    33A     -0.497934
      34A     -0.492143    35A     -0.482312    36A     -0.465450
      37A     -0.458833

  @DF-RHF Final Energy:  -759.27096060516283

   => Energetics <=

    Nuclear Repulsion Energy =            550.9116782873101101
    One-Electron Energy =               -2141.3034197810493424
    Two-Electron Energy =                 831.1207808885762915
    Total Energy =                       -759.2709606051628271
  Basis Set: (6-311++G(2D,2P) AUX)
    Blend: AUG-CC-PVTZ-RI
    Molecular point group: c1

    Geometry (in Angstrom), charge = 0, multiplicity = 1:

       Center              X                  Y                   Z               Mass
    ------------   -----------------  -----------------  -----------------  -----------------
         P            0.076841190826    -0.045011195896    -0.383145987314    30.973761998420
         O            1.296605108164     0.689088098096     0.342370112566    15.994914619570
         O           -0.512129908448    -0.905027729164     0.845780375692    15.994914619570
         O           -0.940934753666     1.162239501963    -0.595660548080    15.994914619570
         O            0.346529585859    -0.811581082069    -1.606283164122    15.994914619570
         C            2.415480568258    -0.096639881587     0.757608758996    12.000000000000
         C           -1.471623387436    -1.922490902827     0.551595869788    12.000000000000
         C           -1.293446594222     2.012749929349     0.496914353216    12.000000000000
         H            2.812871278381    -0.669963777699    -0.084577989523     1.007825032230
         H            2.122281661029    -0.772460356089     1.566310538917     1.007825032230
         H            3.169451597461     0.604186588517     1.116673095837     1.007825032230
         H           -2.396542385608    -1.478943705430     0.168437738883     1.007825032230
         H           -1.675885445352    -2.435167052644     1.492200331663     1.007825032230
         H           -1.072517385701    -2.625122481101    -0.183811202012     1.007825032230
         H           -1.646312592870     1.423265989913     1.348485055338     1.007825032230
         H           -2.094889829895     2.658681375731     0.137484939093     1.007825032230
         H           -0.434086285942     2.616755603631     0.798612629981     1.007825032230

  Basis Set: 6-311++G(2D,2P)
    Blend: 6-311++G(2D,2P)
  Basis Set: (6-311++G(2D,2P) AUX)
    Blend: AUG-CC-PVTZ-JKFIT
	 Reference Energy          =    -759.2709606051628271 [Eh]
	 Singles Energy            =      -0.0000000000000000 [Eh]
	 Same-Spin Energy          =      -0.3761887873497688 [Eh]
	 Opposite-Spin Energy      =      -1.0979607056699479 [Eh]
	 Correlation Energy        =      -1.4741494930197168 [Eh]
	 Total Energy              =    -760.7451100981825221 [Eh]

	 ================> DF-SCS-MP2 Energies <==================
	-----------------------------------------------------------
	 SCS Same-Spin Scale       =       0.3333333333333333 [-]
	 SCS Opposite-Spin Scale   =       1.2000000000000000 [-]
	 SCS Same-Spin Energy      =      -0.1253962624499229 [Eh]
	 SCS Opposite-Spin Energy  =      -1.3175528468039375 [Eh]
	 SCS Correlation Energy    =      -1.4429491092538604 [Eh]
	 SCS Total Energy          =    -760.7139097144166726 [Eh]
	-----------------------------------------------------------

  Dipole Moment: [D]
     X:    -0.6216      Y:     0.3306      Z:     3.7837     Total:     3.8486

*** Psi4 exiting successfully. Buy a developer a beer!
