                               Psi4 1.3.2 release

  ==> Input File <==

--------------------------------------------------------------------------
molecule {
-2 1
P          0.52021       -0.05567        0.00087
O         -0.95916        0.81346       -0.01050
O          1.52589        1.09386        0.00957
O          0.49500       -0.88028       -1.28845
O          0.47336       -0.88203        1.28845
C         -2.12155        0.03425       -0.00141
H         -2.16827       -0.64053       -0.86995
H         -2.99653        0.69712       -0.03192
H         -2.18972       -0.58712        0.90467
}
memory 100GB
set_num_threads(8)
psi4_io.set_default_path("/scratch/bdw2292")
set freeze_core True
set PROPERTIES_ORIGIN ["COM"]
E, wfn = properties('mp2/6-311++G(2d,2p)',properties=['dipole'],return_wfn=True)
oeprop(wfn,"GRID_ESP","WIBERG_LOWDIN_INDICES")
clean()
--------------------------------------------------------------------------

    Molecular point group: c1
  Charge       = -2
  Multiplicity = 1
  Basis Set: 6-311++G(2D,2P)
    Blend: 6-311++G(2D,2P)
  Basis Set: (6-311++G(2D,2P) AUX)
    Blend: AUG-CC-PVTZ-JKFIT

    Orbital Energies [Eh]
    ---------------------

    Doubly Occupied:

       1A    -79.646129     2A    -20.204447     3A    -20.098450
       4A    -20.098329     5A    -20.093018     6A    -10.970297
       7A     -7.165353     8A     -5.065306     9A     -5.063363
      10A     -5.063207    11A     -1.018612    12A     -0.914317
      13A     -0.844169    14A     -0.841458    15A     -0.609334
      16A     -0.371667    17A     -0.307787    18A     -0.297040
      19A     -0.256425    20A     -0.185503    21A     -0.178599
      22A     -0.158535    23A     -0.111529    24A     -0.078326
      25A     -0.075931    26A     -0.075452    27A     -0.034596
      28A     -0.032412    29A     -0.001679

  @DF-RHF Final Energy:  -679.91655656382795

   => Energetics <=

    Nuclear Repulsion Energy =            334.4091900772233430
    One-Electron Energy =               -1628.9289574659076152
    Two-Electron Energy =                 614.6032108248562054
    Total Energy =                       -679.9165565638279531
  Basis Set: (6-311++G(2D,2P) AUX)
    Blend: AUG-CC-PVTZ-RI
    Molecular point group: c1

    Geometry (in Angstrom), charge = -2, multiplicity = 1:

       Center              X                  Y                   Z               Mass
    ------------   -----------------  -----------------  -----------------  -----------------
         P            0.449323976023    -0.059956644224     0.000888423757    30.973761998420
         O           -1.030046023977     0.809173355776    -0.010481576243    15.994914619570
         O            1.455003976023     1.089573355776     0.009588423757    15.994914619570
         O            0.424113976023    -0.884566644224    -1.288431576243    15.994914619570
         O            0.402473976023    -0.886316644224     1.288468423757    15.994914619570
         C           -2.192436023977     0.029963355776    -0.001391576243    12.000000000000
         H           -2.239156023977    -0.644816644224    -0.869931576243     1.007825032230
         H           -3.067416023977     0.692833355776    -0.031901576243     1.007825032230
         H           -2.260606023977    -0.591406644224     0.904688423757     1.007825032230

  Basis Set: 6-311++G(2D,2P)
    Blend: 6-311++G(2D,2P)
  Basis Set: (6-311++G(2D,2P) AUX)
    Blend: AUG-CC-PVTZ-JKFIT
	 Reference Energy          =    -679.9165565638279531 [Eh]
	 Singles Energy            =      -0.0000000000000000 [Eh]
	 Same-Spin Energy          =      -0.3229443872501966 [Eh]
	 Opposite-Spin Energy      =      -0.8677358706271752 [Eh]
	 Correlation Energy        =      -1.1906802578773719 [Eh]
	 Total Energy              =    -681.1072368217053281 [Eh]

	 ================> DF-SCS-MP2 Energies <==================
	-----------------------------------------------------------
	 SCS Same-Spin Scale       =       0.3333333333333333 [-]
	 SCS Opposite-Spin Scale   =       1.2000000000000000 [-]
	 SCS Same-Spin Energy      =      -0.1076481290833989 [Eh]
	 SCS Opposite-Spin Energy  =      -1.0412830447526102 [Eh]
	 SCS Correlation Energy    =      -1.1489311738360091 [Eh]
	 SCS Total Energy          =    -681.0654877376639433 [Eh]
	-----------------------------------------------------------

  Dipole Moment: [D]
     X:    -5.1612      Y:     0.5865      Z:    -0.0111     Total:     5.1945

*** Psi4 exiting successfully. Buy a developer a beer!
