 Gaussian 09, Revision A.02,
 Gaussian 09:  EM64L-G09RevA.02 11-Jun-2009

 --------------------------------------------
 #P MP2/6-311G** Sp Density=MP2 MaxDisk=150GB
 --------------------------------------------

 ----------------------------------------------------------------------
 MonoMethylPhosphate0H Gaussian SP Calculation on node37.bme.utexas.edu
 ----------------------------------------------------------------------
 Symbolic Z-matrix:
 Charge = -2 Multiplicity = 1

                         Standard orientation:
 ---------------------------------------------------------------------
 Center     Atomic      Atomic             Coordinates (Angstroms)
 Number     Number       Type             X           Y           Z
 ---------------------------------------------------------------------
      1         15           0        0.520208   -0.055671    0.000872
      2          8           0       -0.959163    0.813464   -0.010498
      3          8           0        1.525890    1.093858    0.009565
      4          8           0        0.495004   -0.880276   -1.288445
      5          8           0        0.473356   -0.882034    1.288454
      6          6           0       -2.121548    0.034250   -0.001414
      7          1           0       -2.168274   -0.640526   -0.869952
      8          1           0       -2.996534    0.697119   -0.031921
      9          1           0       -2.189717   -0.587124    0.904665
 ---------------------------------------------------------------------

 SCF Done:  E(RHF) =  -679.853487990     A.U. after   13 cycles
 E2 =    -0.1065592386D+01 EUMP2 =    -0.68091908037660D+03

 The electronic state is 1-A.
 Alpha  occ. eigenvalues --  -79.63003 -20.18567 -20.06501 -20.06486 -20.05949
 Alpha  occ. eigenvalues --  -10.96519  -7.15239  -5.05144  -5.05006  -5.04984
 Alpha  occ. eigenvalues --   -1.00604  -0.89482  -0.82216  -0.81926  -0.60315
 Alpha  occ. eigenvalues --   -0.35925  -0.30081  -0.28775  -0.23800  -0.16682
 Alpha  occ. eigenvalues --   -0.16324  -0.14003  -0.09765  -0.05767  -0.05496
 Alpha  occ. eigenvalues --   -0.05365  -0.01319  -0.01224   0.02019
 Alpha virt. eigenvalues --    0.43074   0.49615   0.52464   0.60594   0.61328
 Alpha virt. eigenvalues --    0.63857   0.63969   0.76257   0.76452   0.81405
 Alpha virt. eigenvalues --    0.82090   0.90846   0.94108   1.00203   1.02936

 Mulliken atomic charges:
              1
     1  P    1.085669
     2  O   -0.583523
     3  O   -0.821490
     4  O   -0.847226
     5  O   -0.847594
     6  C   -0.014522
     7  H    0.028718
     8  H   -0.027918
     9  H    0.027887
 Sum of Mulliken atomic charges =  -2.00000

 Dipole moment (field-independent basis, Debye):
    X=             -5.6080    Y=              0.4622    Z=             -0.0090  Tot=              5.6270
 Quadrupole moment (field-independent basis, Debye-Ang):
   XX=            -59.5916   YY=            -59.3354   ZZ=            -59.9634
   XY=             -1.6719   XZ=              0.0383   YZ=             -0.0103

 Normal termination of Gaussian 09 at Tue Apr  7 09:43:33 2020.
