 Gaussian 09, Revision A.02,
 Gaussian 09:  EM64L-G09RevA.02 11-Jun-2009

 ----------------------------------------------------------------------
 #P opt=(maxcycle=400) wB97XD/6-31G* Guess=INDO MaxDisk=150GB SCRF=(PCM
 )
 ----------------------------------------------------------------------

 MonoMethylPhosphate0H Gaussian OPT Calculation on node37.bme.utexas.ed
 u
 ----------------------------------------------------------------------
 Symbolic Z-matrix:
 Charge = -2 Multiplicity = 1

 SCF Done:  E(RwB97XD) =  -682.363120407     A.U. after   14 cycles
 SCF Done:  E(RwB97XD) =  -682.365113647     A.U. after   15 cycles
 SCF Done:  E(RwB97XD) =  -682.365548541     A.U. after   14 cycles
 SCF Done:  E(RwB97XD) =  -682.365605381     A.U. after   10 cycles
 SCF Done:  E(RwB97XD) =  -682.365616277     A.U. after   10 cycles
 SCF Done:  E(RwB97XD) =  -682.365618246     A.U. after    9 cycles
 SCF Done:  E(RwB97XD) =  -682.365618939     A.U. after    9 cycles
 SCF Done:  E(RwB97XD) =  -682.346312625     A.U. after   16 cycles
 SCF Done:  E(RwB97XD) =  -682.365619395     A.U. after   15 cycles
 SCF Done:  E(RwB97XD) =  -682.364322140     A.U. after   15 cycles
 SCF Done:  E(RwB97XD) =  -682.365619003     A.U. after   15 cycles
 Optimization completed.
    -- Stationary point found.

                         Standard orientation:
 ---------------------------------------------------------------------
 Center     Atomic      Atomic             Coordinates (Angstroms)
 Number     Number       Type             X           Y           Z
 ---------------------------------------------------------------------
      1         15           0        0.520208   -0.055671    0.000872
      2          8           0       -0.959163    0.813464   -0.010498
      3          8           0        1.525890    1.093858    0.009565
      4          8           0        0.495004   -0.880276   -1.288445
      5          8           0        0.473356   -0.882034    1.288454
      6          6           0       -2.121548    0.034250   -0.001414
      7          1           0       -2.168274   -0.640526   -0.869952
      8          1           0       -2.996534    0.697120   -0.031921
      9          1           0       -2.189717   -0.587123    0.904665
 ---------------------------------------------------------------------

 The electronic state is 1-A.
 Alpha  occ. eigenvalues --  -77.25246 -19.20844 -19.12730 -19.12728 -19.12722
 Alpha  occ. eigenvalues --  -10.30286  -6.65941  -4.81068  -4.80711  -4.80700
 Alpha  occ. eigenvalues --   -1.06841  -0.98868  -0.92326  -0.92217  -0.73435
 Alpha  occ. eigenvalues --   -0.55808  -0.49409  -0.48995  -0.46175  -0.39880
 Alpha  occ. eigenvalues --   -0.39220  -0.36941  -0.31490  -0.30711  -0.30491
 Alpha  occ. eigenvalues --   -0.30214  -0.26793  -0.25982  -0.23536
 Alpha virt. eigenvalues --    0.21875   0.25281   0.27459   0.27511   0.28870
 Alpha virt. eigenvalues --    0.34900   0.36010   0.37079   0.47714   0.49427
 Alpha virt. eigenvalues --    0.55255   0.56026   0.66449   0.69201   0.74631

 Mulliken atomic charges:
              1
     1  P    0.863740
     2  O   -0.613023
     3  O   -0.794782
     4  O   -0.806947
     5  O   -0.807529
     6  C   -0.219036
     7  H    0.122167
     8  H    0.133028
     9  H    0.122382
 Sum of Mulliken atomic charges =  -2.00000

 Dipole moment (field-independent basis, Debye):
    X=             -7.2304    Y=              0.4084    Z=             -0.0104  Tot=              7.2420
 Quadrupole moment (field-independent basis, Debye-Ang):
   XX=            -53.2509   YY=            -56.8812   ZZ=            -57.3046
   XY=             -1.7128   XZ=              0.0398   YZ=             -0.0116

 Normal termination of Gaussian 09 at Tue Apr  7 09:40:57 2020.
