 Gaussian 09, Revision A.02,
 Gaussian 09:  EM64L-G09RevA.02 11-Jun-2009

 ----------------------------------------------------------------------
 #P MP2/6-311++G(2d,2p) Sp Density=MP2 SCF=Save Guess=Huckel MaxDisk=15
 0GB Pop=NBORead
 ----------------------------------------------------------------------

 ----------------------------------------------------------------------
 MonoMethylPhosphate0H Gaussian SP Calculation on node37.bme.utexas.edu
 ----------------------------------------------------------------------
 Symbolic Z-matrix:
 Charge = -2 Multiplicity = 1

                         Standard orientation:
 ---------------------------------------------------------------------
 Center     Atomic      Atomic             Coordinates (Angstroms)
 Number     Number       Type             X           Y           Z
 ---------------------------------------------------------------------
      1         15           0        0.520208   -0.055671    0.000872
      2          8           0       -0.959163    0.813464   -0.010498
      3          8           0        1.525890    1.093858    0.009565
      4          8           0        0.495004   -0.880276   -1.288445
      5          8           0        0.473356   -0.882034    1.288454
      6          6           0       -2.121548    0.034250   -0.001414
      7          1           0       -2.168274   -0.640526   -0.869952
      8          1           0       -2.996534    0.697119   -0.031921
      9          1           0       -2.189717   -0.587124    0.904665
 ---------------------------------------------------------------------

 SCF Done:  E(RHF) =  -679.916875888     A.U. after   15 cycles
 E2 =    -0.1190833986D+01 EUMP2 =    -0.68110770987385D+03

 The electronic state is 1-A.
 Alpha  occ. eigenvalues --  -79.64596 -20.20444 -20.09845 -20.09833 -20.09302
 Alpha  occ. eigenvalues --  -10.97029  -7.16516  -5.06515  -5.06320  -5.06304
 Alpha  occ. eigenvalues --   -1.01859  -0.91428  -0.84415  -0.84144  -0.60932
 Alpha  occ. eigenvalues --   -0.37164  -0.30778  -0.29703  -0.25641  -0.18549
 Alpha  occ. eigenvalues --   -0.17859  -0.15853  -0.11153  -0.07834  -0.07595
 Alpha  occ. eigenvalues --   -0.07546  -0.03460  -0.03241  -0.00166
 Alpha virt. eigenvalues --    0.23304   0.27511   0.29142   0.34569   0.35528
 Alpha virt. eigenvalues --    0.35973   0.36377   0.38505   0.39993   0.40881
 Alpha virt. eigenvalues --    0.45725   0.54212   0.55946   0.57167   0.57840

 Mulliken atomic charges:
              1
     1  P    1.537268
     2  O   -0.592359
     3  O   -0.946604
     4  O   -1.009606
     5  O   -1.010905
     6  C   -0.036732
     7  H    0.042587
     8  H   -0.027012
     9  H    0.043364
 Sum of Mulliken atomic charges =  -2.00000

 Dipole moment (field-independent basis, Debye):
    X=             -5.8418    Y=              0.5453    Z=             -0.0110  Tot=              5.8672
 Quadrupole moment (field-independent basis, Debye-Ang):
   XX=            -62.2740   YY=            -62.5617   ZZ=            -63.1574
   XY=             -1.9996   XZ=              0.0421   YZ=             -0.0102

 Summary of Natural Population Analysis:

                                       Natural Population
                Natural  -----------------------------------------------
    Atom  No    Charge         Core      Valence    Rydberg      Total
 -----------------------------------------------------------------------
      P    1    2.45620      9.99849     2.32971    0.21560    12.54380
      O    2   -0.87989      1.99966     6.77848    0.10175     8.87989
      O    3   -1.25495      1.99963     7.14440    0.11092     9.25495
      O    4   -1.26439      1.99963     7.15371    0.11105     9.26439
      O    5   -1.26456      1.99963     7.15391    0.11103     9.26456
      C    6   -0.16563      1.99916     4.10179    0.06468     6.16563
      H    7    0.13816      0.00000     0.85010    0.01175     0.86184
      H    8    0.09829      0.00000     0.89385    0.00786     0.90171
      H    9    0.13678      0.00000     0.85148    0.01175     0.86322
 =======================================================================
   * Total *   -2.00000     19.99619    37.25742    0.74639    58.00000

 Normal termination of Gaussian 09 at Tue Apr  7 09:44:57 2020.
