                               Psi4 1.3.2 release

  ==> Input File <==

--------------------------------------------------------------------------
molecule {
-2 1
P          0.52021       -0.05567        0.00087
O         -0.95916        0.81346       -0.01050
O          1.52589        1.09386        0.00957
O          0.49500       -0.88028       -1.28845
O          0.47336       -0.88203        1.28845
C         -2.12155        0.03425       -0.00141
H         -2.16827       -0.64053       -0.86995
H         -2.99653        0.69712       -0.03192
H         -2.18972       -0.58712        0.90467
}
memory 100GB
set_num_threads(8)
psi4_io.set_default_path("/scratch/bdw2292")
set freeze_core True
set PROPERTIES_ORIGIN ["COM"]
E, wfn = energy('mp2/6-311G**',properties=['dipole'],return_wfn=True)
fchk(wfn, "MonoMethylPhosphate0H-dma.fchk")
clean()
--------------------------------------------------------------------------

    Molecular point group: c1

    Geometry (in Angstrom), charge = -2, multiplicity = 1:

       Center              X                  Y                   Z               Mass
    ------------   -----------------  -----------------  -----------------  -----------------
         P            0.449323976023    -0.059956644224     0.000888423757    30.973761998420
         O           -1.030046023977     0.809173355776    -0.010481576243    15.994914619570
         O            1.455003976023     1.089573355776     0.009588423757    15.994914619570
         O            0.424113976023    -0.884566644224    -1.288431576243    15.994914619570
         O            0.402473976023    -0.886316644224     1.288468423757    15.994914619570
         C           -2.192436023977     0.029963355776    -0.001391576243    12.000000000000
         H           -2.239156023977    -0.644816644224    -0.869931576243     1.007825032230
         H           -3.067416023977     0.692833355776    -0.031901576243     1.007825032230
         H           -2.260606023977    -0.591406644224     0.904688423757     1.007825032230

  Charge       = -2
  Multiplicity = 1
  Basis Set: 6-311G**
    Blend: 6-311G**
  Basis Set: (6-311G** AUX)
    Blend: CC-PVTZ-JKFIT

    Orbital Energies [Eh]
    ---------------------

    Doubly Occupied:

       1A    -79.630135     2A    -20.185662     3A    -20.064996
       4A    -20.064842     5A    -20.059475     6A    -10.965184
       7A     -7.152511     8A     -5.051547     9A     -5.050167
      10A     -5.049953    11A     -1.006054    12A     -0.894846
      13A     -0.822176    14A     -0.819272    15A     -0.603159
      16A     -0.359263    17A     -0.300801    18A     -0.287749
      19A     -0.238004    20A     -0.166822    21A     -0.163245
      22A     -0.140029    23A     -0.097640    24A     -0.057657
      25A     -0.054935    26A     -0.053627    27A     -0.013180
      28A     -0.012232    29A      0.020181

  @DF-RHF Final Energy:  -679.85316669331007

   => Energetics <=

    Nuclear Repulsion Energy =            334.4091900772233430
    One-Electron Energy =               -1629.8347523539905524
    Two-Electron Energy =                 615.5723955834572507
    Total Energy =                       -679.8531666933100723

  Dipole Moment: [D]
     X:    -5.5127      Y:     0.3946      Z:    -0.0075     Total:     5.5268

  Basis Set: (6-311G** AUX)
    Blend: CC-PVTZ-RI
	 Reference Energy          =    -679.8531666933100723 [Eh]
	 Singles Energy            =      -0.0000000000000000 [Eh]
	 Same-Spin Energy          =      -0.2862928181721762 [Eh]
	 Opposite-Spin Energy      =      -0.7791892253926602 [Eh]
	 Correlation Energy        =      -1.0654820435648364 [Eh]
	 Total Energy              =    -680.9186487368749567 [Eh]

	 ================> DF-SCS-MP2 Energies <==================
	-----------------------------------------------------------
	 SCS Same-Spin Scale       =       0.3333333333333333 [-]
	 SCS Opposite-Spin Scale   =       1.2000000000000000 [-]
	 SCS Same-Spin Energy      =      -0.0954309393907254 [Eh]
	 SCS Opposite-Spin Energy  =      -0.9350270704711923 [Eh]
	 SCS Correlation Energy    =      -1.0304580098619176 [Eh]
	 SCS Total Energy          =    -680.8836247031720177 [Eh]
	-----------------------------------------------------------

*** Psi4 exiting successfully. Buy a developer a beer!
