                               Psi4 1.3.2 release

  ==> Input File <==

--------------------------------------------------------------------------
molecule {
0 1
P           -0.040053915798     0.481390830517     0.075863064899
O            1.017759352588    -0.469403193978     0.804340045219
O           -0.971670532386    -0.520794021072    -0.760927758583
O            0.785809032769     1.148629468357    -1.129986576392
O           -0.709010585673     1.412268340758     0.993537780630
C            1.805268039169    -1.385850501055     0.042810472401
C           -1.890695175263    -1.330484001492    -0.023029555472
H            1.166568027841    -2.069311383187    -0.525607220227
H            2.401897836675    -1.949166808794     0.760654766671
H            2.462805427040    -0.845029671474    -0.643440031563
H           -2.558831779163    -0.703687304393     0.573512810756
H           -1.353419178310    -2.022989863731     0.634000199333
H           -2.464678828157    -1.893908881889    -0.758919003778
H            0.643502594299     2.104149340544    -1.130692890892
}
memory 20GB
set_num_threads(4)
psi4_io.set_default_path("/scratch/bdw2292")
set freeze_core True
set PROPERTIES_ORIGIN ["COM"]
E, wfn = energy('mp2/6-311G**',properties=['dipole'],return_wfn=True)
fchk(wfn, "DiMethylPhosphate1H-dma.fchk")
clean()
--------------------------------------------------------------------------

    Molecular point group: c1

    Geometry (in Angstrom), charge = 0, multiplicity = 1:

       Center              X                  Y                   Z               Mass
    ------------   -----------------  -----------------  -----------------  -----------------
         P           -0.040053915798     0.481390830517     0.075863064899    30.973761998420
         O            1.017759352588    -0.469403193978     0.804340045219    15.994914619570
         O           -0.971670532386    -0.520794021072    -0.760927758583    15.994914619570
         O            0.785809032769     1.148629468357    -1.129986576392    15.994914619570
         O           -0.709010585673     1.412268340758     0.993537780630    15.994914619570
         C            1.805268039169    -1.385850501055     0.042810472401    12.000000000000
         C           -1.890695175263    -1.330484001492    -0.023029555472    12.000000000000
         H            1.166568027841    -2.069311383187    -0.525607220227     1.007825032230
         H            2.401897836675    -1.949166808794     0.760654766671     1.007825032230
         H            2.462805427040    -0.845029671474    -0.643440031563     1.007825032230
         H           -2.558831779163    -0.703687304393     0.573512810756     1.007825032230
         H           -1.353419178310    -2.022989863731     0.634000199333     1.007825032230
         H           -2.464678828157    -1.893908881889    -0.758919003778     1.007825032230
         H            0.643502594299     2.104149340544    -1.130692890892     1.007825032230

  Charge       = 0
  Multiplicity = 1
  Basis Set: 6-311G**
    Blend: 6-311G**
  Basis Set: (6-311G** AUX)
    Blend: CC-PVTZ-JKFIT

    Orbital Energies [Eh]
    ---------------------

    Doubly Occupied:

       1A    -80.112341     2A    -20.605380     3A    -20.596086
       4A    -20.595521     5A    -20.512394     6A    -11.301009
       7A    -11.300854     8A     -7.635601     9A     -5.533912
      10A     -5.533472    11A     -5.533405    12A     -1.464515
      13A     -1.392727    14A     -1.391709    15A     -1.305477
      16A     -0.979669    17A     -0.961301    18A     -0.825587
      19A     -0.738083    20A     -0.720122    21A     -0.687463
      22A     -0.659555    23A     -0.645146    24A     -0.640357
      25A     -0.633221    26A     -0.574873    27A     -0.564271
      28A     -0.542771    29A     -0.517308    30A     -0.499729
      31A     -0.489360    32A     -0.471380    33A     -0.464279

  @DF-RHF Final Energy:  -720.19160205140599

   => Energetics <=

    Nuclear Repulsion Energy =            454.1479662521433056
    One-Electron Energy =               -1895.8213823612425131
    Two-Electron Energy =                 721.4818140576932137
    Total Energy =                       -720.1916020514059937

  Dipole Moment: [D]
     X:     0.8639      Y:    -2.7260      Z:    -1.9024     Total:     3.4346

  Basis Set: (6-311G** AUX)
    Blend: CC-PVTZ-RI
	 Reference Energy          =    -720.1916020514059937 [Eh]
	 Singles Energy            =      -0.0000000000000000 [Eh]
	 Same-Spin Energy          =      -0.3120480622754336 [Eh]
	 Opposite-Spin Energy      =      -0.8973205094899395 [Eh]
	 Correlation Energy        =      -1.2093685717653730 [Eh]
	 Total Energy              =    -721.4009706231713608 [Eh]

	 ================> DF-SCS-MP2 Energies <==================
	-----------------------------------------------------------
	 SCS Same-Spin Scale       =       0.3333333333333333 [-]
	 SCS Opposite-Spin Scale   =       1.2000000000000000 [-]
	 SCS Same-Spin Energy      =      -0.1040160207584779 [Eh]
	 SCS Opposite-Spin Energy  =      -1.0767846113879274 [Eh]
	 SCS Correlation Energy    =      -1.1808006321464053 [Eh]
	 SCS Total Energy          =    -721.3724026835524228 [Eh]
	-----------------------------------------------------------

*** Psi4 exiting successfully. Buy a developer a beer!
