                               Psi4 1.3.2 release

  ==> Input File <==

--------------------------------------------------------------------------
molecule {
0 1
P           -0.040053915798     0.481390830517     0.075863064899
O            1.017759352588    -0.469403193978     0.804340045219
O           -0.971670532386    -0.520794021072    -0.760927758583
O            0.785809032769     1.148629468357    -1.129986576392
O           -0.709010585673     1.412268340758     0.993537780630
C            1.805268039169    -1.385850501055     0.042810472401
C           -1.890695175263    -1.330484001492    -0.023029555472
H            1.166568027841    -2.069311383187    -0.525607220227
H            2.401897836675    -1.949166808794     0.760654766671
H            2.462805427040    -0.845029671474    -0.643440031563
H           -2.558831779163    -0.703687304393     0.573512810756
H           -1.353419178310    -2.022989863731     0.634000199333
H           -2.464678828157    -1.893908881889    -0.758919003778
H            0.643502594299     2.104149340544    -1.130692890892
}
memory 20GB
set_num_threads(4)
psi4_io.set_default_path("/scratch/bdw2292")
set freeze_core True
set PROPERTIES_ORIGIN ["COM"]
E, wfn = properties('mp2/6-311++G(2d,2p)',properties=['dipole'],return_wfn=True)
oeprop(wfn,"GRID_ESP","WIBERG_LOWDIN_INDICES")
clean()
--------------------------------------------------------------------------

    Molecular point group: c1
  Charge       = 0
  Multiplicity = 1
  Basis Set: 6-311++G(2D,2P)
    Blend: 6-311++G(2D,2P)
  Basis Set: (6-311++G(2D,2P) AUX)
    Blend: AUG-CC-PVTZ-JKFIT

    Orbital Energies [Eh]
    ---------------------

    Doubly Occupied:

       1A    -80.104305     2A    -20.609450     3A    -20.598760
       4A    -20.598693     5A    -20.518457     6A    -11.299493
       7A    -11.298293     8A     -7.624408     9A     -5.523465
      10A     -5.523038    11A     -5.522398    12A     -1.461321
      13A     -1.391618    14A     -1.390348    15A     -1.304574
      16A     -0.977941    17A     -0.960131    18A     -0.824426
      19A     -0.737536    20A     -0.719668    21A     -0.687044
      22A     -0.660164    23A     -0.645765    24A     -0.640546
      25A     -0.632742    26A     -0.577716    27A     -0.564387
      28A     -0.542991    29A     -0.517996    30A     -0.499550
      31A     -0.489182    32A     -0.473379    33A     -0.465611

  @DF-RHF Final Energy:  -720.24021895851092

   => Energetics <=

    Nuclear Repulsion Energy =            454.1479662521433056
    One-Electron Energy =               -1896.0055820702548317
    Two-Electron Energy =                 721.6173968596006034
    Total Energy =                       -720.2402189585109227
  Basis Set: (6-311++G(2D,2P) AUX)
    Blend: AUG-CC-PVTZ-RI
    Molecular point group: c1

    Geometry (in Angstrom), charge = 0, multiplicity = 1:

       Center              X                  Y                   Z               Mass
    ------------   -----------------  -----------------  -----------------  -----------------
         P           -0.040053915798     0.481390830517     0.075863064899    30.973761998420
         O            1.017759352588    -0.469403193978     0.804340045219    15.994914619570
         O           -0.971670532386    -0.520794021072    -0.760927758583    15.994914619570
         O            0.785809032769     1.148629468357    -1.129986576392    15.994914619570
         O           -0.709010585673     1.412268340758     0.993537780630    15.994914619570
         C            1.805268039169    -1.385850501055     0.042810472401    12.000000000000
         C           -1.890695175263    -1.330484001492    -0.023029555472    12.000000000000
         H            1.166568027841    -2.069311383187    -0.525607220227     1.007825032230
         H            2.401897836675    -1.949166808794     0.760654766671     1.007825032230
         H            2.462805427040    -0.845029671474    -0.643440031563     1.007825032230
         H           -2.558831779163    -0.703687304393     0.573512810756     1.007825032230
         H           -1.353419178310    -2.022989863731     0.634000199333     1.007825032230
         H           -2.464678828157    -1.893908881889    -0.758919003778     1.007825032230
         H            0.643502594299     2.104149340544    -1.130692890892     1.007825032230

  Basis Set: 6-311++G(2D,2P)
    Blend: 6-311++G(2D,2P)
  Basis Set: (6-311++G(2D,2P) AUX)
    Blend: AUG-CC-PVTZ-JKFIT
	 Reference Energy          =    -720.2402189585109227 [Eh]
	 Singles Energy            =      -0.0000000000000000 [Eh]
	 Same-Spin Energy          =      -0.3422341506438842 [Eh]
	 Opposite-Spin Energy      =      -0.9767995863662454 [Eh]
	 Correlation Energy        =      -1.3190337370101295 [Eh]
	 Total Energy              =    -721.5592526955210815 [Eh]

	 ================> DF-SCS-MP2 Energies <==================
	-----------------------------------------------------------
	 SCS Same-Spin Scale       =       0.3333333333333333 [-]
	 SCS Opposite-Spin Scale   =       1.2000000000000000 [-]
	 SCS Same-Spin Energy      =      -0.1140780502146281 [Eh]
	 SCS Opposite-Spin Energy  =      -1.1721595036394945 [Eh]
	 SCS Correlation Energy    =      -1.2862375538541226 [Eh]
	 SCS Total Energy          =    -721.5264565123650300 [Eh]
	-----------------------------------------------------------

  Dipole Moment: [D]
     X:     0.8251      Y:    -2.4461      Z:    -1.7334     Total:     3.1095

*** Psi4 exiting successfully. Buy a developer a beer!
