                               Psi4 1.3.2 release

  ==> Input File <==

--------------------------------------------------------------------------
molecule {
0 1
 P   -0.048000    0.583800    0.054800
 O    1.054000   -0.343200    0.794500
 O   -1.003000   -0.456700   -0.737900
 O    0.775800    1.305300   -1.137000
 O   -0.776600    1.535600    0.959600
 C    1.808200   -1.282300    0.047500
 C   -1.810300   -1.342500    0.018500
 H    1.147500   -1.999700   -0.444700
 H    2.468400   -1.821700    0.731300
 H    2.417800   -0.765300   -0.697800
 H   -2.521400   -0.771600    0.621300
 H   -1.188000   -1.962900    0.668200
 H   -2.362300   -1.987800   -0.669000
 H    1.327800    2.088000   -0.925100
}
set {
 geom_maxiter 400
}
memory 20GB
set_num_threads(4)
psi4_io.set_default_path("/scratch/bdw2292")
optimize('wb97x-d/6-31G*')
clean()
--------------------------------------------------------------------------

    Molecular point group: c1
  Charge       = 0
  Multiplicity = 1
  Basis Set: 6-31G*
    Blend: 6-31G*
  Basis Set: (6-31G* AUX)
    Blend: CC-PVDZ-JKFIT
  @DF-RKS Final Energy:  -722.59822302482075
    Total Energy =                       -722.5982230248206406
    Molecular point group: c1
  Basis Set: 6-31G*
    Blend: 6-31G*
  Basis Set: (6-31G* AUX)
    Blend: CC-PVDZ-JKFIT
  Basis Set: 6-31G*
    Blend: 6-31G*
  Basis Set: (6-31G* AUX)
    Blend: CC-PVDZ-JKFIT
  @DF-RKS Final Energy:  -722.60554504118136
    Total Energy =                       -722.6055450411814718
  Basis Set: 6-31G*
    Blend: 6-31G*
  Basis Set: (6-31G* AUX)
    Blend: CC-PVDZ-JKFIT
  Basis Set: 6-31G*
    Blend: 6-31G*
  @DF-RKS Final Energy:  -722.60622285228931
    Total Energy =                       -722.6062228522893065
  @DF-RKS Final Energy:  -722.60647963540885
    Total Energy =                       -722.6064796354088458
  @DF-RKS Final Energy:  -722.60664003760235
    Total Energy =                       -722.6066400376023466
  @DF-RKS Final Energy:  -722.60694039356758
    Total Energy =                       -722.6069403935675837
  @DF-RKS Final Energy:  -722.60709281132301
    Total Energy =                       -722.6070928113230138
  @DF-RKS Final Energy:  -722.60717424889947
    Total Energy =                       -722.6071742488994687
  @DF-RKS Final Energy:  -722.60725249822735
    Total Energy =                       -722.6072524982273535
  @DF-RKS Final Energy:  -722.60726589072021
    Total Energy =                       -722.6072658907202140
  @DF-RKS Final Energy:  -722.60727677978014
    Total Energy =                       -722.6072767797801362
  @DF-RKS Final Energy:  -722.60728243754977
    Total Energy =                       -722.6072824375497703
  @DF-RKS Final Energy:  -722.60728728963102
    Total Energy =                       -722.6072872896310173
  @DF-RKS Final Energy:  -722.60729665838824
    Total Energy =                       -722.6072966583882362
  Basis Set: (6-31G* AUX)
    Blend: CC-PVDZ-JKFIT
  Basis Set: 6-31G*
    Blend: 6-31G*
  Basis Set: (6-31G* AUX)
    Blend: CC-PVDZ-JKFIT
  @DF-RKS Final Energy:  -722.60729962086691
    Total Energy =                       -722.6072996208669110
  Basis Set: 6-31G*
    Blend: 6-31G*
  Basis Set: (6-31G* AUX)
    Blend: CC-PVDZ-JKFIT
  Charge       = 0
  Multiplicity = 1
  Basis Set: 6-31G*
    Blend: 6-31G*
  Basis Set: (6-31G* AUX)
    Blend: CC-PVDZ-JKFIT

    Orbital Energies [Eh]
    ---------------------

    Doubly Occupied:

       1A    -77.392899     2A    -19.315943     3A    -19.308964
       4A    -19.308660     5A    -19.233971     6A    -10.360056
       7A    -10.359535     8A     -6.801356     9A     -4.950998
      10A     -4.950410    11A     -4.948640    12A     -1.207970
      13A     -1.144971    14A     -1.142518    15A     -1.063421
      16A     -0.827318    17A     -0.807918    18A     -0.704857
      19A     -0.629180    20A     -0.617706    21A     -0.577270
      22A     -0.556154    23A     -0.550408    24A     -0.539129
      25A     -0.536783    26A     -0.477967    27A     -0.464282
      28A     -0.451387    29A     -0.425981    30A     -0.409907
      31A     -0.396787    32A     -0.382768    33A     -0.373419

  @DF-RKS Final Energy:  -722.60730029080594

   => Energetics <=

    Nuclear Repulsion Energy =            454.1479662521228988
    One-Electron Energy =               -1896.7401855006103233
    Two-Electron Energy =                 770.2881547479905748
    DFT Exchange-Correlation Energy =     -50.2975385539686286
    Empirical Dispersion Energy =          -0.0056972363404238
    VV10 Nonlocal Energy =                  0.0000000000000000
    Total Energy =                       -722.6073002908059379

  Dipole Moment: [D]
     X:     0.7894      Y:    -2.3278      Z:    -1.7285     Total:     3.0049

    Molecular point group: c1
  Basis Set: 6-31G*
    Blend: 6-31G*
  Basis Set: (6-31G* AUX)
    Blend: CC-PVDZ-JKFIT

  -Total Gradient:
     Atom            X                  Y                   Z
    ------   -----------------  -----------------  -----------------
       1        0.000005710325    -0.000086164040    -0.000076624896
       2       -0.000016199636    -0.000075160551    -0.000021145370
       3        0.000001613492    -0.000071395583    -0.000050295241
       4        0.000034228805    -0.000115500176    -0.000132789226
       5        0.000031392029    -0.000011614519    -0.000101388193
       6        0.000020077173    -0.000093941220    -0.000050858207
       7       -0.000008586286    -0.000082962747    -0.000001600858
       8       -0.000008316466    -0.000095496152     0.000005490554
       9       -0.000011236272    -0.000074835468    -0.000017803286
      10       -0.000009170058    -0.000122058751    -0.000035265412
      11        0.000004421674    -0.000032208358    -0.000035340763
      12       -0.000005269488    -0.000043454358    -0.000000037874
      13       -0.000010403868    -0.000070713595     0.000001990046
      14        0.000012879641    -0.000107787238    -0.000100373310

  **** Optimization is complete! (in 16 steps) ****
    Final optimized geometry and variables:
    Molecular point group: c1

    Geometry (in Angstrom), charge = 0, multiplicity = 1:

    P           -0.040053915798     0.481390830517     0.075863064899
    O            1.017759352588    -0.469403193978     0.804340045219
    O           -0.971670532386    -0.520794021072    -0.760927758583
    O            0.785809032769     1.148629468357    -1.129986576392
    O           -0.709010585673     1.412268340758     0.993537780630
    C            1.805268039169    -1.385850501055     0.042810472401
    C           -1.890695175263    -1.330484001492    -0.023029555472
    H            1.166568027841    -2.069311383187    -0.525607220227
    H            2.401897836675    -1.949166808794     0.760654766671
    H            2.462805427040    -0.845029671474    -0.643440031563
    H           -2.558831779163    -0.703687304393     0.573512810756
    H           -1.353419178310    -2.022989863731     0.634000199333
    H           -2.464678828157    -1.893908881889    -0.758919003778
    H            0.643502594299     2.104149340544    -1.130692890892

*** Psi4 exiting successfully. Buy a developer a beer!
