                               Psi4 1.3.2 release

  ==> Input File <==

--------------------------------------------------------------------------
molecule {
0 1
 C   -3.006074    5.364440    0.161227
 C   -4.063691    4.452442    0.052520
 C   -3.809606    3.064427    0.056223
 C   -2.449431    2.689396    0.180445
 N   -1.425795    3.550566    0.291760
 C   -1.708008    4.859877    0.278035
 C   -4.903323    2.025341   -0.033026
 C   -6.274363    2.336918   -0.079962
 C   -7.150632    1.249587   -0.095956
 N   -6.765990   -0.020760   -0.071836
 C   -5.431845   -0.232678   -0.045323
 N   -4.508118    0.732753   -0.032576
 N   -5.087292   -1.577022   -0.023306
 C   -3.855850   -2.310963    0.084953
 C   -3.913985   -3.669987    0.520250
 C   -2.693067   -4.348343    0.646681
 C   -1.450208   -3.780864    0.348422
 C   -1.406894   -2.464254   -0.132054
 C   -2.613683   -1.749348   -0.234772
 N   -0.178078   -1.813478   -0.494061
 C    0.148499   -0.505501   -0.775259
 C    1.603878   -0.173874   -1.029430
 C    2.485880   -1.025233   -1.713464
 C    3.821974   -0.660389   -1.892697
 C    4.317316    0.568368   -1.416420
 C    3.413314    1.425934   -0.760746
 C    2.075408    1.070062   -0.576379
 C    5.790486    0.944119   -1.581718
 N    6.751991    0.526422   -0.545149
 C    7.114879   -0.905213   -0.443180
 C    6.289601   -1.710152    0.593988
 N    6.262658   -1.116154    1.950416
 C    7.418133   -1.389518    2.812148
 C    5.846852    0.301268    1.835725
 C    6.653531    1.131457    0.803520
 O   -0.673403    0.393291   -0.795043
 C   -5.203174   -4.386082    0.887450
 H   -3.181590    6.436078    0.158758
 H   -5.069957    4.854495   -0.034664
 H   -2.185096    1.639553    0.197368
 H   -0.854634    5.530061    0.367558
 H   -6.670553    3.344576   -0.075590
 H   -8.228098    1.411253   -0.117986
 H   -5.933300   -2.125221    0.018038
 H   -2.692938   -5.379094    0.999472
 H   -0.541376   -4.360139    0.464060
 H   -2.600069   -0.725936   -0.578092
 H    0.587946   -2.472348   -0.485801
 H    2.122336   -1.974080   -2.100341
 H    4.487603   -1.349525   -2.412966
 H    3.753337    2.388083   -0.378500
 H    1.379436    1.740820   -0.075745
 H    6.150056    0.535323   -2.537666
 H    5.863219    2.038533   -1.661102
 H    7.116265   -1.369297   -1.414999
 H    8.601621   -0.958817    0.079714
 H    6.859692   -3.042840    0.680480
 H    5.069488   -1.821593    0.193029
 H    8.329208   -0.936341    2.405551
 H    7.572311   -2.470521    2.905283
 H    7.243100   -0.988570    3.817150
 H    5.950198    0.904585    3.075118
 H    4.472908    0.308546    1.451126
 H    8.128687    1.188645    1.384272
 H    6.316014    2.135905    0.741171
 H   -5.868336   -4.484851    0.017893
 H   -5.757011   -3.843630    1.666767
 H   -5.036484   -5.401677    1.272209
}
memory 20GB
set_num_threads(6)
psi4_io.set_default_path("/scratch/bdw2292")
set freeze_core True
E, wfn = energy('mp2/6-311++G**',return_wfn=True)
oeprop(wfn,"WIBERG_LOWDIN_INDICES")
clean()
--------------------------------------------------------------------------

    Molecular point group: c1

    Geometry (in Angstrom), charge = 0, multiplicity = 1:

       Center              X                  Y                   Z               Mass
    ------------   -----------------  -----------------  -----------------  -----------------
         C           -2.864556342186     5.309745498164     0.173685913897    12.000000000000
         C           -3.922173342186     4.397747498164     0.064978913897    12.000000000000
         C           -3.668088342186     3.009732498164     0.068681913897    12.000000000000
         C           -2.307913342186     2.634701498164     0.192903913897    12.000000000000
         N           -1.284277342186     3.495871498164     0.304218913897    14.003074004430
         C           -1.566490342186     4.805182498164     0.290493913897    12.000000000000
         C           -4.761805342186     1.970646498164    -0.020567086103    12.000000000000
         C           -6.132845342186     2.282223498164    -0.067503086103    12.000000000000
         C           -7.009114342186     1.194892498164    -0.083497086103    12.000000000000
         N           -6.624472342186    -0.075454501836    -0.059377086103    14.003074004430
         C           -5.290327342186    -0.287372501836    -0.032864086103    12.000000000000
         N           -4.366600342186     0.678058498164    -0.020117086103    14.003074004430
         N           -4.945774342186    -1.631716501836    -0.010847086103    14.003074004430
         C           -3.714332342186    -2.365657501836     0.097411913897    12.000000000000
         C           -3.772467342186    -3.724681501836     0.532708913897    12.000000000000
         C           -2.551549342186    -4.403037501836     0.659139913897    12.000000000000
         C           -1.308690342186    -3.835558501836     0.360880913897    12.000000000000
         C           -1.265376342186    -2.518948501836    -0.119595086103    12.000000000000
         C           -2.472165342186    -1.804042501836    -0.222313086103    12.000000000000
         N           -0.036560342186    -1.868172501836    -0.481602086103    14.003074004430
         C            0.290016657814    -0.560195501836    -0.762800086103    12.000000000000
         C            1.745395657814    -0.228568501836    -1.016971086103    12.000000000000
         C            2.627397657814    -1.079927501836    -1.701005086103    12.000000000000
         C            3.963491657814    -0.715083501836    -1.880238086103    12.000000000000
         C            4.458833657814     0.513673498164    -1.403961086103    12.000000000000
         C            3.554831657814     1.371239498164    -0.748287086103    12.000000000000
         C            2.216925657814     1.015367498164    -0.563920086103    12.000000000000
         C            5.932003657814     0.889424498164    -1.569259086103    12.000000000000
         N            6.893508657814     0.471727498164    -0.532690086103    14.003074004430
         C            7.256396657814    -0.959907501836    -0.430721086103    12.000000000000
         C            6.431118657814    -1.764846501836     0.606446913897    12.000000000000
         N            6.404175657814    -1.170848501836     1.962874913897    14.003074004430
         C            7.559650657814    -1.444212501836     2.824606913897    12.000000000000
         C            5.988369657814     0.246573498164     1.848183913897    12.000000000000
         C            6.795048657814     1.076762498164     0.815978913897    12.000000000000
         O           -0.531885342186     0.338596498164    -0.782584086103    15.994914619570
         C           -5.061656342186    -4.440776501836     0.899908913897    12.000000000000
         H           -3.040072342186     6.381383498164     0.171216913897     1.007825032230
         H           -4.928439342186     4.799800498164    -0.022205086103     1.007825032230
         H           -2.043578342186     1.584858498164     0.209826913897     1.007825032230
         H           -0.713116342186     5.475366498164     0.380016913897     1.007825032230
         H           -6.529035342186     3.289881498164    -0.063131086103     1.007825032230
         H           -8.086580342186     1.356558498164    -0.105527086103     1.007825032230
         H           -5.791782342186    -2.179915501836     0.030496913897     1.007825032230
         H           -2.551420342186    -5.433788501836     1.011930913897     1.007825032230
         H           -0.399858342186    -4.414833501836     0.476518913897     1.007825032230
         H           -2.458551342186    -0.780630501836    -0.565633086103     1.007825032230
         H            0.729463657814    -2.527042501836    -0.473342086103     1.007825032230
         H            2.263853657814    -2.028774501836    -2.087882086103     1.007825032230
         H            4.629120657814    -1.404219501836    -2.400507086103     1.007825032230
         H            3.894854657814     2.333388498164    -0.366041086103     1.007825032230
         H            1.520953657814     1.686125498164    -0.063286086103     1.007825032230
         H            6.291573657814     0.480628498164    -2.525207086103     1.007825032230
         H            6.004736657814     1.983838498164    -1.648643086103     1.007825032230
         H            7.257782657814    -1.423991501836    -1.402540086103     1.007825032230
         H            8.743138657814    -1.013511501836     0.092172913897     1.007825032230
         H            7.001209657814    -3.097534501836     0.692938913897     1.007825032230
         H            5.211005657814    -1.876287501836     0.205487913897     1.007825032230
         H            8.470725657814    -0.991035501836     2.418009913897     1.007825032230
         H            7.713828657814    -2.525215501836     2.917741913897     1.007825032230
         H            7.384617657814    -1.043264501836     3.829608913897     1.007825032230
         H            6.091715657814     0.849890498164     3.087576913897     1.007825032230
         H            4.614425657814     0.253851498164     1.463584913897     1.007825032230
         H            8.270204657814     1.133950498164     1.396730913897     1.007825032230
         H            6.457531657814     2.081210498164     0.753629913897     1.007825032230
         H           -5.726818342186    -4.539545501836     0.030351913897     1.007825032230
         H           -5.615493342186    -3.898324501836     1.679225913897     1.007825032230
         H           -4.894966342186    -5.456371501836     1.284667913897     1.007825032230

  Charge       = 0
  Multiplicity = 1
  Basis Set: 6-311++G**
    Blend: 6-311++G**
  Basis Set: (6-311++G** AUX)
    Blend: AUG-CC-PVTZ-JKFIT

    Orbital Energies [Eh]
    ---------------------

    Doubly Occupied:

       1A    -20.525896     2A    -15.608588     3A    -15.594416
       4A    -15.576124     5A    -15.560985     6A    -15.560219
       7A    -15.559417     8A    -15.557416     9A    -11.372182
      10A    -11.364007    11A    -11.320897    12A    -11.320503
      13A    -11.316314    14A    -11.309336    15A    -11.308841
      16A    -11.300165    17A    -11.297572    18A    -11.297365
      19A    -11.284491    20A    -11.279529    21A    -11.270262
      22A    -11.268967    23A    -11.263799    24A    -11.262869
      25A    -11.262497    26A    -11.256900    27A    -11.254180
      28A    -11.253129    29A    -11.250536    30A    -11.247364
      31A    -11.244898    32A    -11.244016    33A    -11.243518
      34A    -11.237684    35A    -11.237616    36A    -11.235456
      37A    -11.222756    38A     -1.395355    39A     -1.331829
      40A     -1.253851    41A     -1.251823    42A     -1.250186
      43A     -1.234108    44A     -1.203979    45A     -1.195099
      46A     -1.167897    47A     -1.139656    48A     -1.096653
      49A     -1.066463    50A     -1.058513    51A     -1.039188
      52A     -1.030390    53A     -1.028983    54A     -1.005049
      55A     -1.000147    56A     -0.981174    57A     -0.947058
      58A     -0.929774    59A     -0.908451    60A     -0.892922
      61A     -0.870266    62A     -0.854754    63A     -0.847853
      64A     -0.842844    65A     -0.834486    66A     -0.832861
      67A     -0.819036    68A     -0.807756    69A     -0.783824
      70A     -0.750770    71A     -0.731072    72A     -0.727025
      73A     -0.707243    74A     -0.706303    75A     -0.690978
      76A     -0.682828    77A     -0.670884    78A     -0.663946
      79A     -0.654279    80A     -0.652112    81A     -0.648212
      82A     -0.642582    83A     -0.638143    84A     -0.630860
      85A     -0.624294    86A     -0.616771    87A     -0.608361
      88A     -0.607329    89A     -0.601998    90A     -0.597114
      91A     -0.592600    92A     -0.588987    93A     -0.584973
      94A     -0.582904    95A     -0.580644    96A     -0.579588
      97A     -0.577551    98A     -0.568711    99A     -0.561157
     100A     -0.549793   101A     -0.542830   102A     -0.539193
     103A     -0.532999   104A     -0.526358   105A     -0.521083
     106A     -0.520658   107A     -0.514770   108A     -0.511328
     109A     -0.508734   110A     -0.503856   111A     -0.502491
     112A     -0.498808   113A     -0.480646   114A     -0.477276
     115A     -0.445515   116A     -0.438095   117A     -0.434309
     118A     -0.427417   119A     -0.426117   120A     -0.418145
     121A     -0.397287   122A     -0.395035   123A     -0.384375
     124A     -0.381040   125A     -0.361007   126A     -0.352145
     127A     -0.347174   128A     -0.328547   129A     -0.315948
     130A     -0.310988   131A     -0.289285

  @DF-RHF Final Energy: -1572.29663195433318

   => Energetics <=

    Nuclear Repulsion Energy =           3687.5298490779796339
    One-Electron Energy =               -9474.2001584297086083
    Two-Electron Energy =                4214.3736773973960226
    Total Energy =                      -1572.2966319543329519

  Dipole Moment: [D]
     X:    -0.5132      Y:    -0.2279      Z:    -0.5145     Total:     0.7616

  Basis Set: (6-311++G** AUX)
    Blend: AUG-CC-PVTZ-RI
	 Reference Energy          =   -1572.2966319543331792 [Eh]
	 Singles Energy            =      -0.0000000000000000 [Eh]
	 Same-Spin Energy          =      -1.4715479802100686 [Eh]
	 Opposite-Spin Energy      =      -4.0508627090707723 [Eh]
	 Correlation Energy        =      -5.5224106892808411 [Eh]
	 Total Energy              =   -1577.8190426436140115 [Eh]

	 ================> DF-SCS-MP2 Energies <==================
	-----------------------------------------------------------
	 SCS Same-Spin Scale       =       0.3333333333333333 [-]
	 SCS Opposite-Spin Scale   =       1.2000000000000000 [-]
	 SCS Same-Spin Energy      =      -0.4905159934033562 [Eh]
	 SCS Opposite-Spin Energy  =      -4.8610352508849264 [Eh]
	 SCS Correlation Energy    =      -5.3515512442882827 [Eh]
	 SCS Total Energy          =   -1577.6481831986213820 [Eh]
	-----------------------------------------------------------

*** Psi4 exiting successfully. Buy a developer a beer!
