                               Psi4 1.3.2 release

  ==> Input File <==

--------------------------------------------------------------------------
molecule {
0 1
 C   -0.305766    4.715020   -0.430906
 C    1.005086    4.511009    0.018085
 C    1.577758    3.224995   -0.041552
 C    0.753658    2.205759   -0.578796
 N   -0.496480    2.384625   -1.025156
 C   -1.010341    3.621489   -0.944520
 C    2.989857    2.920149    0.390485
 C    3.944807    3.889576    0.741742
 C    5.223201    3.408051    1.043384
 N    5.561359    2.121429    1.025171
 C    4.576785    1.258365    0.700933
 N    3.328214    1.615939    0.394975
 N    4.951950   -0.072544    0.704738
 C    4.286102   -1.303233    0.363309
 C    5.072850   -2.473670    0.134694
 C    4.393704   -3.645868   -0.233612
 C    3.004049   -3.733089   -0.364274
 C    2.237648   -2.595834   -0.086261
 C    2.891811   -1.398380    0.249885
 N    0.807686   -2.536889   -0.144875
 C   -0.114676   -3.448847   -0.604104
 C   -1.522114   -2.917600   -0.757274
 C   -1.845195   -1.929731   -1.699796
 C   -3.149227   -1.433333   -1.774971
 C   -4.175953   -1.933736   -0.951064
 C   -3.839957   -2.955659   -0.041224
 C   -2.535986   -3.445660    0.055756
 C   -5.591758   -1.355116   -0.989658
 N   -5.906217   -0.141534   -0.217078
 C   -5.428547    1.176106   -0.692151
 C   -4.085509    1.657628   -0.083484
 N   -4.050852    1.612913    1.399832
 C   -4.646659    2.754177    2.104941
 C   -4.466531    0.263136    1.851323
 C   -5.819863   -0.208622    1.259892
 O    0.150947   -4.611542   -0.858821
 C    6.589054   -2.497617    0.238047
 H   -0.770293    5.695667   -0.387416
 H    1.552220    5.360062    0.420713
 H    1.133342    1.194225   -0.685656
 H   -2.025990    3.733408   -1.318942
 H    3.760883    4.956882    0.754602
 H    6.041400    4.076582    1.309718
 H    5.935422   -0.133453    0.921139
 H    4.966141   -4.550487   -0.434420
 H    2.520934   -4.659305   -0.649808
 H    2.307046   -0.515499    0.454656
 H    0.411822   -1.648966    0.132830
 H   -1.061500   -1.531917   -2.339602
 H   -3.365246   -0.633640   -2.482814
 H   -4.601303   -3.363557    0.623281
 H   -2.286714   -4.229193    0.766977
 H   -5.845764   -1.138674   -2.036712
 H   -6.288818   -2.131251   -0.642423
 H   -5.368387    1.188032   -1.983413
 H   -6.475077    2.176520   -0.306096
 H   -3.858597    2.617728   -0.406809
 H   -3.101044    0.881120   -0.509089
 H   -5.727177    2.803116    1.928881
 H   -4.189468    3.689812    1.762638
 H   -4.467135    2.667857    3.182887
 H   -4.505640    0.243804    3.096108
 H   -3.434668   -0.645708    1.446443
 H   -6.863077    0.658340    1.791859
 H   -6.080438   -1.332367    1.644744
 H    6.947856   -2.257847    1.249405
 H    7.041637   -1.773761   -0.445594
 H    7.013823   -3.472426   -0.015596
}
memory 20GB
set_num_threads(6)
psi4_io.set_default_path("/scratch/bdw2292")
set freeze_core True
E, wfn = energy('mp2/6-311++G**',return_wfn=True)
oeprop(wfn,"WIBERG_LOWDIN_INDICES")
clean()
--------------------------------------------------------------------------

    Molecular point group: c1

    Geometry (in Angstrom), charge = 0, multiplicity = 1:

       Center              X                  Y                   Z               Mass
    ------------   -----------------  -----------------  -----------------  -----------------
         C           -0.367279455447     4.747518252295    -0.450446002288    12.000000000000
         C            0.943572544553     4.543507252295    -0.001455002288    12.000000000000
         C            1.516244544553     3.257493252295    -0.061092002288    12.000000000000
         C            0.692144544553     2.238257252295    -0.598336002288    12.000000000000
         N           -0.557993455447     2.417123252295    -1.044696002288    14.003074004430
         C           -1.071854455447     3.653987252295    -0.964060002288    12.000000000000
         C            2.928343544553     2.952647252295     0.370944997712    12.000000000000
         C            3.883293544553     3.922074252295     0.722201997712    12.000000000000
         C            5.161687544553     3.440549252295     1.023843997712    12.000000000000
         N            5.499845544553     2.153927252295     1.005630997712    14.003074004430
         C            4.515271544553     1.290863252295     0.681392997712    12.000000000000
         N            3.266700544553     1.648437252295     0.375434997712    14.003074004430
         N            4.890436544553    -0.040045747705     0.685197997712    14.003074004430
         C            4.224588544553    -1.270734747705     0.343768997712    12.000000000000
         C            5.011336544553    -2.441171747705     0.115153997712    12.000000000000
         C            4.332190544553    -3.613369747705    -0.253152002288    12.000000000000
         C            2.942535544553    -3.700590747705    -0.383814002288    12.000000000000
         C            2.176134544553    -2.563335747705    -0.105801002288    12.000000000000
         C            2.830297544553    -1.365881747705     0.230344997712    12.000000000000
         N            0.746172544553    -2.504390747705    -0.164415002288    14.003074004430
         C           -0.176189455447    -3.416348747705    -0.623644002288    12.000000000000
         C           -1.583627455447    -2.885101747705    -0.776814002288    12.000000000000
         C           -1.906708455447    -1.897232747705    -1.719336002288    12.000000000000
         C           -3.210740455447    -1.400834747705    -1.794511002288    12.000000000000
         C           -4.237466455447    -1.901237747705    -0.970604002288    12.000000000000
         C           -3.901470455447    -2.923160747705    -0.060764002288    12.000000000000
         C           -2.597499455447    -3.413161747705     0.036215997712    12.000000000000
         C           -5.653271455447    -1.322617747705    -1.009198002288    12.000000000000
         N           -5.967730455447    -0.109035747705    -0.236618002288    14.003074004430
         C           -5.490060455447     1.208604252295    -0.711691002288    12.000000000000
         C           -4.147022455447     1.690126252295    -0.103024002288    12.000000000000
         N           -4.112365455447     1.645411252295     1.380291997712    14.003074004430
         C           -4.708172455447     2.786675252295     2.085400997712    12.000000000000
         C           -4.528044455447     0.295634252295     1.831782997712    12.000000000000
         C           -5.881376455447    -0.176123747705     1.240351997712    12.000000000000
         O            0.089433544553    -4.579043747705    -0.878361002288    15.994914619570
         C            6.527540544553    -2.465118747705     0.218506997712    12.000000000000
         H           -0.831806455447     5.728165252295    -0.406956002288     1.007825032230
         H            1.490706544553     5.392560252295     0.401172997712     1.007825032230
         H            1.071828544553     1.226723252295    -0.705196002288     1.007825032230
         H           -2.087503455447     3.765906252295    -1.338482002288     1.007825032230
         H            3.699369544553     4.989380252295     0.735061997712     1.007825032230
         H            5.979886544553     4.109080252295     1.290177997712     1.007825032230
         H            5.873908544553    -0.100954747705     0.901598997712     1.007825032230
         H            4.904627544553    -4.517988747705    -0.453960002288     1.007825032230
         H            2.459420544553    -4.626806747705    -0.669348002288     1.007825032230
         H            2.245532544553    -0.483000747705     0.435115997712     1.007825032230
         H            0.350308544553    -1.616467747705     0.113289997712     1.007825032230
         H           -1.123013455447    -1.499418747705    -2.359142002288     1.007825032230
         H           -3.426759455447    -0.601141747705    -2.502354002288     1.007825032230
         H           -4.662816455447    -3.331058747705     0.603740997712     1.007825032230
         H           -2.348227455447    -4.196694747705     0.747436997712     1.007825032230
         H           -5.907277455447    -1.106175747705    -2.056252002288     1.007825032230
         H           -6.350331455447    -2.098752747705    -0.661963002288     1.007825032230
         H           -5.429900455447     1.220530252295    -2.002953002288     1.007825032230
         H           -6.536590455447     2.209018252295    -0.325636002288     1.007825032230
         H           -3.920110455447     2.650226252295    -0.426349002288     1.007825032230
         H           -3.162557455447     0.913618252295    -0.528629002288     1.007825032230
         H           -5.788690455447     2.835614252295     1.909340997712     1.007825032230
         H           -4.250981455447     3.722310252295     1.743097997712     1.007825032230
         H           -4.528648455447     2.700355252295     3.163346997712     1.007825032230
         H           -4.567153455447     0.276302252295     3.076567997712     1.007825032230
         H           -3.496181455447    -0.613209747705     1.426902997712     1.007825032230
         H           -6.924590455447     0.690838252295     1.772318997712     1.007825032230
         H           -6.141951455447    -1.299868747705     1.625203997712     1.007825032230
         H            6.886342544553    -2.225348747705     1.229864997712     1.007825032230
         H            6.980123544553    -1.741262747705    -0.465134002288     1.007825032230
         H            6.952309544553    -3.439927747705    -0.035136002288     1.007825032230

  Charge       = 0
  Multiplicity = 1
  Basis Set: 6-311++G**
    Blend: 6-311++G**
  Basis Set: (6-311++G** AUX)
    Blend: AUG-CC-PVTZ-JKFIT

    Orbital Energies [Eh]
    ---------------------

    Doubly Occupied:

       1A    -20.526615     2A    -15.603694     3A    -15.602499
       4A    -15.581173     5A    -15.571274     6A    -15.567863
       7A    -15.567833     8A    -15.552693     9A    -11.372937
      10A    -11.365571    11A    -11.332567    12A    -11.320726
      13A    -11.311643    14A    -11.311155    15A    -11.304026
      16A    -11.302056    17A    -11.296735    18A    -11.295717
      19A    -11.293179    20A    -11.285446    21A    -11.276131
      22A    -11.275620    23A    -11.273245    24A    -11.261618
      25A    -11.258086    26A    -11.254409    27A    -11.253464
      28A    -11.250985    29A    -11.250030    30A    -11.248884
      31A    -11.247274    32A    -11.246814    33A    -11.246543
      34A    -11.239493    35A    -11.233906    36A    -11.232485
      37A    -11.224501    38A     -1.389711    39A     -1.343657
      40A     -1.273179    41A     -1.252303    42A     -1.243455
      43A     -1.241673    44A     -1.207573    45A     -1.198689
      46A     -1.162537    47A     -1.139743    48A     -1.112660
      49A     -1.073072    50A     -1.059907    51A     -1.045152
      52A     -1.037390    53A     -1.024919    54A     -1.007446
      55A     -0.996096    56A     -0.976995    57A     -0.947667
      58A     -0.928206    59A     -0.923497    60A     -0.899259
      61A     -0.869478    62A     -0.865933    63A     -0.855059
      64A     -0.844598    65A     -0.839125    66A     -0.829133
      67A     -0.822976    68A     -0.805486    69A     -0.779125
      70A     -0.752605    71A     -0.736292    72A     -0.731223
      73A     -0.720157    74A     -0.705340    75A     -0.694444
      76A     -0.680794    77A     -0.670289    78A     -0.664062
      79A     -0.659430    80A     -0.654426    81A     -0.651496
      82A     -0.642737    83A     -0.639919    84A     -0.628860
      85A     -0.622489    86A     -0.619561    87A     -0.613102
      88A     -0.608929    89A     -0.605307    90A     -0.602368
      91A     -0.600422    92A     -0.596632    93A     -0.595548
      94A     -0.589687    95A     -0.585576    96A     -0.580780
      97A     -0.579507    98A     -0.571040    99A     -0.565728
     100A     -0.557067   101A     -0.548356   102A     -0.541035
     103A     -0.531764   104A     -0.524956   105A     -0.522769
     106A     -0.519225   107A     -0.514379   108A     -0.511676
     109A     -0.508126   110A     -0.506921   111A     -0.504456
     112A     -0.494440   113A     -0.484036   114A     -0.481287
     115A     -0.466263   116A     -0.449500   117A     -0.439439
     118A     -0.434816   119A     -0.427595   120A     -0.426073
     121A     -0.412711   122A     -0.407752   123A     -0.396242
     124A     -0.380073   125A     -0.371897   126A     -0.344517
     127A     -0.343330   128A     -0.343062   129A     -0.315110
     130A     -0.311709   131A     -0.289807

  @DF-RHF Final Energy: -1572.36855951583493

   => Energetics <=

    Nuclear Repulsion Energy =           3796.8992480010601867
    One-Electron Energy =               -9692.3081684057688108
    Two-Electron Energy =                4323.0403608888736926
    Total Energy =                      -1572.3685595158349315

  Dipole Moment: [D]
     X:     0.5963      Y:     6.6429      Z:     1.2048     Total:     6.7776

  Basis Set: (6-311++G** AUX)
    Blend: AUG-CC-PVTZ-RI
	 Reference Energy          =   -1572.3685595158349315 [Eh]
	 Singles Energy            =      -0.0000000000000000 [Eh]
	 Same-Spin Energy          =      -1.4715752209519515 [Eh]
	 Opposite-Spin Energy      =      -4.0477854385314442 [Eh]
	 Correlation Energy        =      -5.5193606594833957 [Eh]
	 Total Energy              =   -1577.8879201753184134 [Eh]

	 ================> DF-SCS-MP2 Energies <==================
	-----------------------------------------------------------
	 SCS Same-Spin Scale       =       0.3333333333333333 [-]
	 SCS Opposite-Spin Scale   =       1.2000000000000000 [-]
	 SCS Same-Spin Energy      =      -0.4905250736506505 [Eh]
	 SCS Opposite-Spin Energy  =      -4.8573425262377325 [Eh]
	 SCS Correlation Energy    =      -5.3478675998883833 [Eh]
	 SCS Total Energy          =   -1577.7164271157232633 [Eh]
	-----------------------------------------------------------

*** Psi4 exiting successfully. Buy a developer a beer!
