                               Psi4 1.3.2 release

  ==> Input File <==

--------------------------------------------------------------------------
molecule {
0 1
 C    1.833202    5.233294   -0.924352
 C    3.102259    4.639751   -0.887768
 C    3.230745    3.263188   -0.612244
 C    2.018438    2.571490   -0.369689
 N    0.797918    3.121385   -0.393414
 C    0.715378    4.430625   -0.672342
 C    4.558735    2.548582   -0.544353
 C    5.814185    3.164174   -0.676081
 C    6.921930    2.323067   -0.531618
 N    6.846985    1.017131   -0.296140
 C    5.601445    0.503771   -0.208415
 N    4.478764    1.220273   -0.324137
 N    5.552122   -0.861732    0.032058
 C    4.485485   -1.812841    0.229243
 C    4.807685   -3.139160    0.651605
 C    3.738337   -4.028914    0.848103
 C    2.395929   -3.692503    0.642537
 C    2.097015   -2.397369    0.207216
 C    3.142404   -1.478998    0.013646
 N    0.786695   -1.899746   -0.081587
 C   -0.457111   -2.420759    0.187105
 C   -1.633263   -1.540808   -0.176231
 C   -1.749706   -0.224330    0.296368
 C   -2.822340    0.574405   -0.105890
 C   -3.815304    0.085766   -0.976752
 C   -3.697040   -1.245985   -1.419472
 C   -2.625433   -2.051317   -1.026966
 C   -4.996112    0.958862   -1.404030
 N   -6.229448    0.961473   -0.597654
 C   -6.192695    1.551832    0.760334
 C   -5.983892    0.540913    1.917513
 N   -6.909643   -0.615055    1.900353
 C   -8.241777   -0.396878    2.476343
 C   -6.865310   -1.232007    0.555345
 C   -7.092957   -0.241607   -0.615587
 O   -0.629855   -3.521771    0.682541
 C    6.226106   -3.618049    0.911792
 H    1.712420    6.291004   -1.139026
 H    3.966949    5.268404   -1.085152
 H    2.036768    1.517155   -0.119275
 H   -0.288673    4.851662   -0.686684
 H    5.957768    4.223913   -0.846736
 H    7.931575    2.726951   -0.602881
 H    6.492807   -1.216061    0.119008
 H    3.946125   -5.045996    1.178691
 H    1.601809   -4.411863    0.801153
 H    2.920463   -0.479854   -0.324951
 H    0.773126   -1.000733   -0.543641
 H   -0.982604    0.173466    0.956153
 H   -2.878725    1.597100    0.266769
 H   -4.449709   -1.667662   -2.085667
 H   -2.535997   -3.075552   -1.380030
 H   -4.650342    2.001688   -1.455440
 H   -5.286273    0.669970   -2.424892
 H   -5.476752    2.372585    0.802433
 H   -7.618085    2.183598    1.019062
 H   -6.087714    1.156927    3.066218
 H   -4.628482    0.006038    1.812876
 H   -8.811529    0.332128    1.888978
 H   -8.152667   -0.028032    3.504545
 H   -8.799617   -1.339895    2.506451
 H   -7.835447   -2.244678    0.484854
 H   -5.583913   -1.830910    0.406243
 H   -8.575125    0.263463   -0.444726
 H   -7.046051   -0.727738   -1.571404
 H    6.721207   -3.010473    1.682591
 H    6.840847   -3.563707    0.002407
 H    6.270830   -4.659814    1.258285
}
memory 20GB
set_num_threads(6)
psi4_io.set_default_path("/scratch/bdw2292")
set freeze_core True
E, wfn = energy('mp2/6-311++G**',return_wfn=True)
oeprop(wfn,"WIBERG_LOWDIN_INDICES")
clean()
--------------------------------------------------------------------------

    Molecular point group: c1

    Geometry (in Angstrom), charge = 0, multiplicity = 1:

       Center              X                  Y                   Z               Mass
    ------------   -----------------  -----------------  -----------------  -----------------
         C            1.679494208505     5.191424143303    -0.932291634038    12.000000000000
         C            2.948551208505     4.597881143303    -0.895707634038    12.000000000000
         C            3.077037208505     3.221318143303    -0.620183634038    12.000000000000
         C            1.864730208505     2.529620143303    -0.377628634038    12.000000000000
         N            0.644210208505     3.079515143303    -0.401353634038    14.003074004430
         C            0.561670208505     4.388755143303    -0.680281634038    12.000000000000
         C            4.405027208505     2.506712143303    -0.552292634038    12.000000000000
         C            5.660477208505     3.122304143303    -0.684020634038    12.000000000000
         C            6.768222208505     2.281197143303    -0.539557634038    12.000000000000
         N            6.693277208505     0.975261143303    -0.304079634038    14.003074004430
         C            5.447737208505     0.461901143303    -0.216354634038    12.000000000000
         N            4.325056208505     1.178403143303    -0.332076634038    14.003074004430
         N            5.398414208505    -0.903601856697     0.024118365962    14.003074004430
         C            4.331777208505    -1.854710856697     0.221303365962    12.000000000000
         C            4.653977208505    -3.181029856697     0.643665365962    12.000000000000
         C            3.584629208505    -4.070783856697     0.840163365962    12.000000000000
         C            2.242221208505    -3.734372856697     0.634597365962    12.000000000000
         C            1.943307208505    -2.439238856697     0.199276365962    12.000000000000
         C            2.988696208505    -1.520867856697     0.005706365962    12.000000000000
         N            0.632987208505    -1.941615856697    -0.089526634038    14.003074004430
         C           -0.610818791495    -2.462628856697     0.179165365962    12.000000000000
         C           -1.786970791495    -1.582677856697    -0.184170634038    12.000000000000
         C           -1.903413791495    -0.266199856697     0.288428365962    12.000000000000
         C           -2.976047791495     0.532535143303    -0.113829634038    12.000000000000
         C           -3.969011791495     0.043896143303    -0.984691634038    12.000000000000
         C           -3.850747791495    -1.287854856697    -1.427411634038    12.000000000000
         C           -2.779140791495    -2.093186856697    -1.034905634038    12.000000000000
         C           -5.149819791495     0.916992143303    -1.411969634038    12.000000000000
         N           -6.383155791495     0.919603143303    -0.605593634038    14.003074004430
         C           -6.346402791495     1.509962143303     0.752394365962    12.000000000000
         C           -6.137599791495     0.499043143303     1.909573365962    12.000000000000
         N           -7.063350791495    -0.656924856697     1.892413365962    14.003074004430
         C           -8.395484791495    -0.438747856697     2.468403365962    12.000000000000
         C           -7.019017791495    -1.273876856697     0.547405365962    12.000000000000
         C           -7.246664791495    -0.283476856697    -0.623526634038    12.000000000000
         O           -0.783562791495    -3.563640856697     0.674601365962    15.994914619570
         C            6.072398208505    -3.659918856697     0.903852365962    12.000000000000
         H            1.558712208505     6.249134143303    -1.146965634038     1.007825032230
         H            3.813241208505     5.226534143303    -1.093091634038     1.007825032230
         H            1.883060208505     1.475285143303    -0.127214634038     1.007825032230
         H           -0.442380791495     4.809792143303    -0.694623634038     1.007825032230
         H            5.804060208505     4.182043143303    -0.854675634038     1.007825032230
         H            7.777867208505     2.685081143303    -0.610820634038     1.007825032230
         H            6.339099208505    -1.257930856697     0.111068365962     1.007825032230
         H            3.792417208505    -5.087865856697     1.170751365962     1.007825032230
         H            1.448101208505    -4.453732856697     0.793213365962     1.007825032230
         H            2.766755208505    -0.521723856697    -0.332890634038     1.007825032230
         H            0.619418208505    -1.042602856697    -0.551580634038     1.007825032230
         H           -1.136311791495     0.131596143303     0.948213365962     1.007825032230
         H           -3.032432791495     1.555230143303     0.258829365962     1.007825032230
         H           -4.603416791495    -1.709531856697    -2.093606634038     1.007825032230
         H           -2.689704791495    -3.117421856697    -1.387969634038     1.007825032230
         H           -4.804049791495     1.959818143303    -1.463379634038     1.007825032230
         H           -5.439980791495     0.628100143303    -2.432831634038     1.007825032230
         H           -5.630459791495     2.330715143303     0.794493365962     1.007825032230
         H           -7.771792791495     2.141728143303     1.011122365962     1.007825032230
         H           -6.241421791495     1.115057143303     3.058278365962     1.007825032230
         H           -4.782189791495    -0.035831856697     1.804936365962     1.007825032230
         H           -8.965236791495     0.290258143303     1.881038365962     1.007825032230
         H           -8.306374791495    -0.069901856697     3.496605365962     1.007825032230
         H           -8.953324791495    -1.381764856697     2.498511365962     1.007825032230
         H           -7.989154791495    -2.286547856697     0.476914365962     1.007825032230
         H           -5.737620791495    -1.872779856697     0.398303365962     1.007825032230
         H           -8.728832791495     0.221593143303    -0.452665634038     1.007825032230
         H           -7.199758791495    -0.769607856697    -1.579343634038     1.007825032230
         H            6.567499208505    -3.052342856697     1.674651365962     1.007825032230
         H            6.687139208505    -3.605576856697    -0.005532634038     1.007825032230
         H            6.117122208505    -4.701683856697     1.250345365962     1.007825032230

  Charge       = 0
  Multiplicity = 1
  Basis Set: 6-311++G**
    Blend: 6-311++G**
  Basis Set: (6-311++G** AUX)
    Blend: AUG-CC-PVTZ-JKFIT

    Orbital Energies [Eh]
    ---------------------

    Doubly Occupied:

       1A    -20.524579     2A    -15.604736     3A    -15.603970
       4A    -15.585402     5A    -15.574385     6A    -15.572745
       7A    -15.570904     8A    -15.556555     9A    -11.376492
      10A    -11.365167    11A    -11.335187    12A    -11.317348
      13A    -11.314172    14A    -11.313434    15A    -11.308804
      16A    -11.306062    17A    -11.303363    18A    -11.300112
      19A    -11.299706    20A    -11.293471    21A    -11.288701
      22A    -11.280607    23A    -11.279961    24A    -11.264770
      25A    -11.259223    26A    -11.257121    27A    -11.254268
      28A    -11.252483    29A    -11.252365    30A    -11.248723
      31A    -11.248620    32A    -11.248081    33A    -11.243396
      34A    -11.240672    35A    -11.236280    36A    -11.232234
      37A    -11.225526    38A     -1.389006    39A     -1.344796
      40A     -1.277334    41A     -1.252980    42A     -1.246160
      43A     -1.242376    44A     -1.209918    45A     -1.200659
      46A     -1.164094    47A     -1.140660    48A     -1.115410
      49A     -1.075613    50A     -1.061724    51A     -1.048331
      52A     -1.038658    53A     -1.026284    54A     -1.008813
      55A     -0.995264    56A     -0.977440    57A     -0.946880
      58A     -0.927028    59A     -0.926129    60A     -0.901314
      61A     -0.872362    62A     -0.867817    63A     -0.857678
      64A     -0.843985    65A     -0.837522    66A     -0.829354
      67A     -0.825720    68A     -0.806739    69A     -0.779791
      70A     -0.754340    71A     -0.738701    72A     -0.732505
      73A     -0.721957    74A     -0.699955    75A     -0.696800
      76A     -0.683470    77A     -0.678749    78A     -0.667477
      79A     -0.661138    80A     -0.657884    81A     -0.652756
      82A     -0.647726    83A     -0.640130    84A     -0.629716
      85A     -0.624078    86A     -0.620164    87A     -0.614013
      88A     -0.607154    89A     -0.602683    90A     -0.601783
      91A     -0.598107    92A     -0.596757    93A     -0.592545
      94A     -0.587726    95A     -0.584437    96A     -0.581729
      97A     -0.580157    98A     -0.570619    99A     -0.563154
     100A     -0.560737   101A     -0.548984   102A     -0.543758
     103A     -0.537744   104A     -0.527008   105A     -0.525118
     106A     -0.521601   107A     -0.514040   108A     -0.511333
     109A     -0.507560   110A     -0.500893   111A     -0.498545
     112A     -0.492847   113A     -0.485527   114A     -0.481967
     115A     -0.452262   116A     -0.451662   117A     -0.441000
     118A     -0.430890   119A     -0.426888   120A     -0.422541
     121A     -0.415076   122A     -0.399701   123A     -0.386836
     124A     -0.379748   125A     -0.374393   126A     -0.346240
     127A     -0.345946   128A     -0.343414   129A     -0.316313
     130A     -0.309985   131A     -0.290631

  @DF-RHF Final Energy: -1572.29489268593761

   => Energetics <=

    Nuclear Repulsion Energy =           3661.4163174183972842
    One-Electron Energy =               -9420.9082854337011668
    Two-Electron Energy =                4187.1970753293662710
    Total Energy =                      -1572.2948926859371568

  Dipole Moment: [D]
     X:     3.8543      Y:     6.2469      Z:    -2.5113     Total:     7.7580

  Basis Set: (6-311++G** AUX)
    Blend: AUG-CC-PVTZ-RI
	 Reference Energy          =   -1572.2948926859376115 [Eh]
	 Singles Energy            =      -0.0000000000000000 [Eh]
	 Same-Spin Energy          =      -1.4710638990770168 [Eh]
	 Opposite-Spin Energy      =      -4.0516306065598044 [Eh]
	 Correlation Energy        =      -5.5226945056368208 [Eh]
	 Total Energy              =   -1577.8175871915743755 [Eh]

	 ================> DF-SCS-MP2 Energies <==================
	-----------------------------------------------------------
	 SCS Same-Spin Scale       =       0.3333333333333333 [-]
	 SCS Opposite-Spin Scale   =       1.2000000000000000 [-]
	 SCS Same-Spin Energy      =      -0.4903546330256723 [Eh]
	 SCS Opposite-Spin Energy  =      -4.8619567278717648 [Eh]
	 SCS Correlation Energy    =      -5.3523113608974366 [Eh]
	 SCS Total Energy          =   -1577.6472040468349860 [Eh]
	-----------------------------------------------------------

*** Psi4 exiting successfully. Buy a developer a beer!
