                               Psi4 1.3.2 release

  ==> Input File <==

--------------------------------------------------------------------------
molecule {
0 1
 C   -0.398615    4.134297    1.310801
 C    0.972108    3.972341    1.563253
 C    1.621760    2.781950    1.180861
 C    0.800158    1.820025    0.541704
 N   -0.505942    1.955453    0.287250
 C   -1.092989    3.099361    0.671662
 C    3.097607    2.524393    1.378681
 C    4.031470    3.427853    1.909850
 C    5.360419    2.985049    1.927032
 N    5.771136    1.798548    1.483608
 C    4.804171    0.986662    1.007507
 N    3.510890    1.314206    0.958734
 N    5.215693   -0.260828    0.544838
 C    4.498837   -1.343762   -0.091128
 C    5.204101   -2.367302   -0.792892
 C    4.430488   -3.353816   -1.433697
 C    3.028634   -3.398701   -1.408477
 C    2.363117   -2.416544   -0.671062
 C    3.104701   -1.416726   -0.032720
 N    0.967133   -2.259625   -0.494240
 C    0.082154   -2.954030    0.292047
 C   -1.394015   -2.706587    0.055841
 C   -1.956129   -2.454761   -1.205246
 C   -3.309236   -2.127169   -1.318568
 C   -4.162293   -2.127343   -0.198211
 C   -3.599583   -2.458690    1.048619
 C   -2.237458   -2.735968    1.179129
 C   -5.631177   -1.721684   -0.323827
 N   -5.998897   -0.294315   -0.296058
 C   -5.728573    0.553782   -1.480904
 C   -4.457883    1.444069   -1.407727
 N   -4.335609    2.257484   -0.172613
 C   -5.133413    3.490762   -0.139142
 C   -4.474887    1.347772    0.987143
 C   -5.748780    0.468467    0.948082
 O    0.444319   -3.724990    1.163446
 C    6.717942   -2.398561   -0.908348
 H   -0.919227    5.043843    1.595350
 H    1.505827    4.782705    2.054080
 H    1.227520    0.890054    0.188696
 H   -2.154390    3.186582    0.446816
 H    3.779747    4.420850    2.261498
 H    6.147320    3.633942    2.311068
 H    6.219344   -0.340221    0.611782
 H    4.937205   -4.135745   -1.998770
 H    2.474258   -4.177173   -1.917290
 H    2.574920   -0.671802    0.535941
 H    0.567687   -1.562719   -1.108366
 H   -1.316530   -2.451000   -2.084250
 H   -3.706364   -1.880119   -2.303154
 H   -4.218948   -2.458268    1.945022
 H   -1.802554   -2.955876    2.150994
 H   -6.019113   -2.134773   -1.266575
 H   -6.194248   -2.197568    0.492343
 H   -5.747691   -0.050147   -2.399002
 H   -6.932648    1.569994   -1.586786
 H   -4.391099    2.164844   -2.365453
 H   -3.277456    0.544818   -1.441874
 H   -6.206118    3.268682   -0.161675
 H   -4.885115    4.124658   -0.998233
 H   -4.911197    4.057887    0.772270
 H   -4.397375    1.911510    1.904426
 H   -3.252749    0.366886    0.935257
 H   -6.943320    1.435343    1.136583
 H   -5.731346   -0.391548    2.040033
 H    7.193302   -2.482759    0.079262
 H    7.103730   -1.485257   -1.382969
 H    7.084942   -3.243630   -1.506997
}
memory 20GB
set_num_threads(6)
psi4_io.set_default_path("/scratch/bdw2292")
set freeze_core True
E, wfn = energy('mp2/6-311++G**',return_wfn=True)
oeprop(wfn,"WIBERG_LOWDIN_INDICES")
clean()
--------------------------------------------------------------------------

    Molecular point group: c1

    Geometry (in Angstrom), charge = 0, multiplicity = 1:

       Center              X                  Y                   Z               Mass
    ------------   -----------------  -----------------  -----------------  -----------------
         C           -0.497813919977     4.180722330266     1.097946337662    12.000000000000
         C            0.872909080023     4.018766330266     1.350398337662    12.000000000000
         C            1.522561080023     2.828375330266     0.968006337662    12.000000000000
         C            0.700959080023     1.866450330266     0.328849337662    12.000000000000
         N           -0.605140919977     2.001878330266     0.074395337662    14.003074004430
         C           -1.192187919977     3.145786330266     0.458807337662    12.000000000000
         C            2.998408080023     2.570818330266     1.165826337662    12.000000000000
         C            3.932271080023     3.474278330266     1.696995337662    12.000000000000
         C            5.261220080023     3.031474330266     1.714177337662    12.000000000000
         N            5.671937080023     1.844973330266     1.270753337662    14.003074004430
         C            4.704972080023     1.033087330266     0.794652337662    12.000000000000
         N            3.411691080023     1.360631330266     0.745879337662    14.003074004430
         N            5.116494080023    -0.214402669734     0.331983337662    14.003074004430
         C            4.399638080023    -1.297336669734    -0.303982662338    12.000000000000
         C            5.104902080023    -2.320876669734    -1.005746662338    12.000000000000
         C            4.331289080023    -3.307390669734    -1.646551662338    12.000000000000
         C            2.929435080023    -3.352275669734    -1.621331662338    12.000000000000
         C            2.263918080023    -2.370118669734    -0.883916662338    12.000000000000
         C            3.005502080023    -1.370300669734    -0.245574662338    12.000000000000
         N            0.867934080023    -2.213199669734    -0.707094662338    14.003074004430
         C           -0.017044919977    -2.907604669734     0.079192337662    12.000000000000
         C           -1.493213919977    -2.660161669734    -0.157013662338    12.000000000000
         C           -2.055327919977    -2.408335669734    -1.418100662338    12.000000000000
         C           -3.408434919977    -2.080743669734    -1.531422662338    12.000000000000
         C           -4.261491919977    -2.080917669734    -0.411065662338    12.000000000000
         C           -3.698781919977    -2.412264669734     0.835764337662    12.000000000000
         C           -2.336656919977    -2.689542669734     0.966274337662    12.000000000000
         C           -5.730375919977    -1.675258669734    -0.536681662338    12.000000000000
         N           -6.098095919977    -0.247889669734    -0.508912662338    14.003074004430
         C           -5.827771919977     0.600207330266    -1.693758662338    12.000000000000
         C           -4.557081919977     1.490494330266    -1.620581662338    12.000000000000
         N           -4.434807919977     2.303909330266    -0.385467662338    14.003074004430
         C           -5.232611919977     3.537187330266    -0.351996662338    12.000000000000
         C           -4.574085919977     1.394197330266     0.774288337662    12.000000000000
         C           -5.847978919977     0.514892330266     0.735227337662    12.000000000000
         O            0.345120080023    -3.678564669734     0.950591337662    15.994914619570
         C            6.618743080023    -2.352135669734    -1.121202662338    12.000000000000
         H           -1.018425919977     5.090268330266     1.382495337662     1.007825032230
         H            1.406628080023     4.829130330266     1.841225337662     1.007825032230
         H            1.128321080023     0.936479330266    -0.024158662338     1.007825032230
         H           -2.253588919977     3.233007330266     0.233961337662     1.007825032230
         H            3.680548080023     4.467275330266     2.048643337662     1.007825032230
         H            6.048121080023     3.680367330266     2.098213337662     1.007825032230
         H            6.120145080023    -0.293795669734     0.398927337662     1.007825032230
         H            4.838006080023    -4.089319669734    -2.211624662338     1.007825032230
         H            2.375059080023    -4.130747669734    -2.130144662338     1.007825032230
         H            2.475721080023    -0.625376669734     0.323086337662     1.007825032230
         H            0.468488080023    -1.516293669734    -1.321220662338     1.007825032230
         H           -1.415728919977    -2.404574669734    -2.297104662338     1.007825032230
         H           -3.805562919977    -1.833693669734    -2.516008662338     1.007825032230
         H           -4.318146919977    -2.411842669734     1.732167337662     1.007825032230
         H           -1.901752919977    -2.909450669734     1.938139337662     1.007825032230
         H           -6.118311919977    -2.088347669734    -1.479429662338     1.007825032230
         H           -6.293446919977    -2.151142669734     0.279488337662     1.007825032230
         H           -5.846889919977    -0.003721669734    -2.611856662338     1.007825032230
         H           -7.031846919977     1.616419330266    -1.799640662338     1.007825032230
         H           -4.490297919977     2.211269330266    -2.578307662338     1.007825032230
         H           -3.376654919977     0.591243330266    -1.654728662338     1.007825032230
         H           -6.305316919977     3.315107330266    -0.374529662338     1.007825032230
         H           -4.984313919977     4.171083330266    -1.211087662338     1.007825032230
         H           -5.010395919977     4.104312330266     0.559415337662     1.007825032230
         H           -4.496573919977     1.957935330266     1.691571337662     1.007825032230
         H           -3.351947919977     0.413311330266     0.722402337662     1.007825032230
         H           -7.042518919977     1.481768330266     0.923728337662     1.007825032230
         H           -5.830544919977    -0.345122669734     1.827178337662     1.007825032230
         H            7.094103080023    -2.436333669734    -0.133592662338     1.007825032230
         H            7.004531080023    -1.438831669734    -1.595823662338     1.007825032230
         H            6.985743080023    -3.197204669734    -1.719851662338     1.007825032230

  Charge       = 0
  Multiplicity = 1
  Basis Set: 6-311++G**
    Blend: 6-311++G**
  Basis Set: (6-311++G** AUX)
    Blend: AUG-CC-PVTZ-JKFIT

    Orbital Energies [Eh]
    ---------------------

    Doubly Occupied:

       1A    -20.514515     2A    -15.600411     3A    -15.586591
       4A    -15.577796     5A    -15.569371     6A    -15.568884
       7A    -15.566127     8A    -15.560549     9A    -11.370017
      10A    -11.357873    11A    -11.337664    12A    -11.326868
      13A    -11.316227    14A    -11.309293    15A    -11.308396
      16A    -11.302471    17A    -11.297164    18A    -11.285388
      19A    -11.280956    20A    -11.280331    21A    -11.279165
      22A    -11.277163    23A    -11.267242    24A    -11.256866
      25A    -11.256826    26A    -11.256005    27A    -11.255394
      28A    -11.254824    29A    -11.250654    30A    -11.248213
      31A    -11.247566    32A    -11.245946    33A    -11.244949
      34A    -11.242625    35A    -11.238119    36A    -11.237343
      37A    -11.225135    38A     -1.380617    39A     -1.337700
      40A     -1.262375    41A     -1.250646    42A     -1.246744
      43A     -1.235339    44A     -1.208548    45A     -1.202474
      46A     -1.161944    47A     -1.138851    48A     -1.103500
      49A     -1.066812    50A     -1.058408    51A     -1.038636
      52A     -1.035315    53A     -1.024262    54A     -1.007789
      55A     -0.999163    56A     -0.981031    57A     -0.948006
      58A     -0.930970    59A     -0.916040    60A     -0.893902
      61A     -0.868281    62A     -0.860481    63A     -0.849099
      64A     -0.847450    65A     -0.837777    66A     -0.831563
      67A     -0.819887    68A     -0.805237    69A     -0.778335
      70A     -0.744049    71A     -0.740156    72A     -0.725608
      73A     -0.713827    74A     -0.701117    75A     -0.692315
      76A     -0.677814    77A     -0.673507    78A     -0.658654
      79A     -0.657814    80A     -0.654229    81A     -0.649465
      82A     -0.648760    83A     -0.635614    84A     -0.631083
      85A     -0.624702    86A     -0.621799    87A     -0.618318
      88A     -0.612277    89A     -0.608815    90A     -0.600561
      91A     -0.596404    92A     -0.594508    93A     -0.593076
      94A     -0.583278    95A     -0.582314    96A     -0.577124
      97A     -0.575546    98A     -0.572930    99A     -0.562136
     100A     -0.547815   101A     -0.544527   102A     -0.536021
     103A     -0.530500   104A     -0.525744   105A     -0.524098
     106A     -0.517903   107A     -0.514769   108A     -0.506905
     109A     -0.503490   110A     -0.501186   111A     -0.497808
     112A     -0.489851   113A     -0.479130   114A     -0.470091
     115A     -0.469475   116A     -0.442575   117A     -0.430616
     118A     -0.426789   119A     -0.422860   120A     -0.405071
     121A     -0.401165   122A     -0.389300   123A     -0.385661
     124A     -0.381974   125A     -0.367567   126A     -0.345832
     127A     -0.341514   128A     -0.335166   129A     -0.328645
     130A     -0.314332   131A     -0.296043

  @DF-RHF Final Energy: -1572.27510330538394

   => Energetics <=

    Nuclear Repulsion Energy =           3818.2368601502280399
    One-Electron Energy =               -9735.3632661473548069
    Two-Electron Energy =                4344.8513026917435127
    Total Energy =                      -1572.2751033053837091

  Dipole Moment: [D]
     X:     0.0048      Y:     5.0744      Z:    -1.8313     Total:     5.3948

  Basis Set: (6-311++G** AUX)
    Blend: AUG-CC-PVTZ-RI
	 Reference Energy          =   -1572.2751033053839365 [Eh]
	 Singles Energy            =      -0.0000000000000000 [Eh]
	 Same-Spin Energy          =      -1.4750089346133413 [Eh]
	 Opposite-Spin Energy      =      -4.0569512141588673 [Eh]
	 Correlation Energy        =      -5.5319601487722085 [Eh]
	 Total Energy              =   -1577.8070634541561503 [Eh]

	 ================> DF-SCS-MP2 Energies <==================
	-----------------------------------------------------------
	 SCS Same-Spin Scale       =       0.3333333333333333 [-]
	 SCS Opposite-Spin Scale   =       1.2000000000000000 [-]
	 SCS Same-Spin Energy      =      -0.4916696448711138 [Eh]
	 SCS Opposite-Spin Energy  =      -4.8683414569906409 [Eh]
	 SCS Correlation Energy    =      -5.3600111018617547 [Eh]
	 SCS Total Energy          =   -1577.6351144072457373 [Eh]
	-----------------------------------------------------------

*** Psi4 exiting successfully. Buy a developer a beer!
