                               Psi4 1.3.2 release

  ==> Input File <==

--------------------------------------------------------------------------
molecule {
0 1
 C   -0.576308    4.116295   -2.329131
 C    0.705342    4.169211   -1.766263
 C    1.345862    2.981841   -1.360458
 C    0.619496    1.784093   -1.572844
 N   -0.603035    1.713715   -2.115734
 C   -1.184158    2.865800   -2.482483
 C    2.725493    2.941619   -0.752794
 C    3.587486    4.045350   -0.635276
 C    4.842833    3.785109   -0.073666
 N    5.240214    2.587789    0.350164
 C    4.342486    1.590776    0.215578
 N    3.125803    1.734223   -0.311700
 N    4.762422    0.356656    0.672354
 C    4.199128   -0.963520    0.584402
 C    5.065914   -2.098051    0.599785
 C    4.469430   -3.365669    0.503116
 C    3.089948   -3.572723    0.395503
 C    2.248901   -2.454618    0.392592
 C    2.816549   -1.173545    0.492823
 N    0.821785   -2.499926    0.298000
 C   -0.025611   -3.511343   -0.092567
 C   -1.478660   -3.099475   -0.154894
 C   -2.039082   -2.688457   -1.373171
 C   -3.359207   -2.234248   -1.418344
 C   -4.158968   -2.187287   -0.259502
 C   -3.604304   -2.687039    0.934897
 C   -2.284441   -3.140711    0.992097
 C   -5.584198   -1.632095   -0.299554
 N   -5.807711   -0.232140    0.096628
 C   -5.196190    0.847945   -0.709261
 C   -3.843373    1.373297   -0.161606
 N   -3.886524    1.767066    1.269554
 C   -4.394676    3.113511    1.558669
 C   -4.460445    0.652870    2.063087
 C   -5.821358    0.134475    1.529748
 O    0.336259   -4.642583   -0.366940
 C    6.578597   -1.990497    0.696879
 H   -1.090271    5.020054   -2.642776
 H    1.176955    5.140679   -1.640924
 H    1.057568    0.825020   -1.312612
 H   -2.176040    2.769465   -2.921352
 H    3.348626    5.048670   -0.965536
 H    5.591138    4.567530    0.049925
 H    5.723670    0.422848    0.971563
 H    5.103228   -4.251397    0.507195
 H    2.671543   -4.567521    0.304477
 H    2.173473   -0.306757    0.512465
 H    0.385710   -1.587886    0.306108
 H   -1.419441   -2.687462   -2.266111
 H   -3.756241   -1.875730   -2.367784
 H   -4.202291   -2.699419    1.845603
 H   -1.856411   -3.497033    1.925600
 H   -5.969123   -1.740006   -1.323334
 H   -6.222027   -2.259999    0.337961
 H   -5.065663    0.473712   -1.910755
 H   -6.146976    1.975022   -0.718450
 H   -3.479259    2.182749   -0.740634
 H   -2.852647    0.306995   -0.270997
 H   -5.453608    3.198800    1.289684
 H   -3.825421    3.861228    0.994131
 H   -4.280753    3.340136    2.624897
 H   -4.602061    1.058412    3.337035
 H   -3.617640   -0.273524    2.063986
 H   -6.802591    1.226510    1.684552
 H   -6.222581   -0.766942    2.185922
 H    6.911284   -1.538319    1.642302
 H    6.982110   -1.377233   -0.113838
 H    7.075724   -2.961650    0.628562
}
memory 20GB
set_num_threads(6)
psi4_io.set_default_path("/scratch/bdw2292")
set freeze_core True
E, wfn = energy('mp2/6-311++G**',return_wfn=True)
oeprop(wfn,"WIBERG_LOWDIN_INDICES")
clean()
--------------------------------------------------------------------------

    Molecular point group: c1

    Geometry (in Angstrom), charge = 0, multiplicity = 1:

       Center              X                  Y                   Z               Mass
    ------------   -----------------  -----------------  -----------------  -----------------
         C           -0.594488126294     4.152635170976    -2.223746179903    12.000000000000
         C            0.687161873706     4.205551170976    -1.660878179903    12.000000000000
         C            1.327681873706     3.018181170976    -1.255073179903    12.000000000000
         C            0.601315873706     1.820433170976    -1.467459179903    12.000000000000
         N           -0.621215126294     1.750055170976    -2.010349179903    14.003074004430
         C           -1.202338126294     2.902140170976    -2.377098179903    12.000000000000
         C            2.707312873706     2.977959170976    -0.647409179903    12.000000000000
         C            3.569305873706     4.081690170976    -0.529891179903    12.000000000000
         C            4.824652873706     3.821449170976     0.031718820097    12.000000000000
         N            5.222033873706     2.624129170976     0.455548820097    14.003074004430
         C            4.324305873706     1.627116170976     0.320962820097    12.000000000000
         N            3.107622873706     1.770563170976    -0.206315179903    14.003074004430
         N            4.744241873706     0.392996170976     0.777738820097    14.003074004430
         C            4.180947873706    -0.927179829024     0.689786820097    12.000000000000
         C            5.047733873706    -2.061710829024     0.705169820097    12.000000000000
         C            4.451249873706    -3.329328829024     0.608500820097    12.000000000000
         C            3.071767873706    -3.536382829024     0.500887820097    12.000000000000
         C            2.230720873706    -2.418277829024     0.497976820097    12.000000000000
         C            2.798368873706    -1.137204829024     0.598207820097    12.000000000000
         N            0.803604873706    -2.463585829024     0.403384820097    14.003074004430
         C           -0.043791126294    -3.475002829024     0.012817820097    12.000000000000
         C           -1.496840126294    -3.063134829024    -0.049509179903    12.000000000000
         C           -2.057262126294    -2.652116829024    -1.267786179903    12.000000000000
         C           -3.377387126294    -2.197907829024    -1.312959179903    12.000000000000
         C           -4.177148126294    -2.150946829024    -0.154117179903    12.000000000000
         C           -3.622484126294    -2.650698829024     1.040281820097    12.000000000000
         C           -2.302621126294    -3.104370829024     1.097481820097    12.000000000000
         C           -5.602378126294    -1.595754829024    -0.194169179903    12.000000000000
         N           -5.825891126294    -0.195799829024     0.202012820097    14.003074004430
         C           -5.214370126294     0.884285170976    -0.603876179903    12.000000000000
         C           -3.861553126294     1.409637170976    -0.056221179903    12.000000000000
         N           -3.904704126294     1.803406170976     1.374938820097    14.003074004430
         C           -4.412856126294     3.149851170976     1.664053820097    12.000000000000
         C           -4.478625126294     0.689210170976     2.168471820097    12.000000000000
         C           -5.839538126294     0.170815170976     1.635132820097    12.000000000000
         O            0.318078873706    -4.606242829024    -0.261555179903    15.994914619570
         C            6.560416873706    -1.954156829024     0.802263820097    12.000000000000
         H           -1.108451126294     5.056394170976    -2.537391179903     1.007825032230
         H            1.158774873706     5.177019170976    -1.535539179903     1.007825032230
         H            1.039387873706     0.861360170976    -1.207227179903     1.007825032230
         H           -2.194220126294     2.805805170976    -2.815967179903     1.007825032230
         H            3.330445873706     5.085010170976    -0.860151179903     1.007825032230
         H            5.572957873706     4.603870170976     0.155309820097     1.007825032230
         H            5.705489873706     0.459188170976     1.076947820097     1.007825032230
         H            5.085047873706    -4.215056829024     0.612579820097     1.007825032230
         H            2.653362873706    -4.531180829024     0.409861820097     1.007825032230
         H            2.155292873706    -0.270416829024     0.617849820097     1.007825032230
         H            0.367529873706    -1.551545829024     0.411492820097     1.007825032230
         H           -1.437621126294    -2.651121829024    -2.160726179903     1.007825032230
         H           -3.774421126294    -1.839389829024    -2.262399179903     1.007825032230
         H           -4.220471126294    -2.663078829024     1.950987820097     1.007825032230
         H           -1.874591126294    -3.460692829024     2.030984820097     1.007825032230
         H           -5.987303126294    -1.703665829024    -1.217949179903     1.007825032230
         H           -6.240207126294    -2.223658829024     0.443345820097     1.007825032230
         H           -5.083843126294     0.510052170976    -1.805370179903     1.007825032230
         H           -6.165156126294     2.011362170976    -0.613065179903     1.007825032230
         H           -3.497439126294     2.219089170976    -0.635249179903     1.007825032230
         H           -2.870827126294     0.343335170976    -0.165612179903     1.007825032230
         H           -5.471788126294     3.235140170976     1.395068820097     1.007825032230
         H           -3.843601126294     3.897568170976     1.099515820097     1.007825032230
         H           -4.298933126294     3.376476170976     2.730281820097     1.007825032230
         H           -4.620241126294     1.094752170976     3.442419820097     1.007825032230
         H           -3.635820126294    -0.237183829024     2.169370820097     1.007825032230
         H           -6.820771126294     1.262850170976     1.789936820097     1.007825032230
         H           -6.240761126294    -0.730601829024     2.291306820097     1.007825032230
         H            6.893103873706    -1.501978829024     1.747686820097     1.007825032230
         H            6.963929873706    -1.340892829024    -0.008453179903     1.007825032230
         H            7.057543873706    -2.925309829024     0.733946820097     1.007825032230

  Charge       = 0
  Multiplicity = 1
  Basis Set: 6-311++G**
    Blend: 6-311++G**
  Basis Set: (6-311++G** AUX)
    Blend: AUG-CC-PVTZ-JKFIT

    Orbital Energies [Eh]
    ---------------------

    Doubly Occupied:

       1A    -20.528585     2A    -15.603990     3A    -15.601320
       4A    -15.580313     5A    -15.570912     6A    -15.566441
       7A    -15.566420     8A    -15.553060     9A    -11.371801
      10A    -11.366089    11A    -11.331830    12A    -11.317236
      13A    -11.311340    14A    -11.309543    15A    -11.300390
      16A    -11.298339    17A    -11.296331    18A    -11.294669
      19A    -11.292618    20A    -11.286964    21A    -11.285086
      22A    -11.276437    23A    -11.275688    24A    -11.261632
      25A    -11.258438    26A    -11.253990    27A    -11.253064
      28A    -11.251750    29A    -11.249625    30A    -11.247866
      31A    -11.247624    32A    -11.247562    33A    -11.247103
      34A    -11.240071    35A    -11.234072    36A    -11.233533
      37A    -11.226617    38A     -1.390657    39A     -1.343585
      40A     -1.272667    41A     -1.253957    42A     -1.243471
      43A     -1.242197    44A     -1.207313    45A     -1.198117
      46A     -1.163036    47A     -1.140069    48A     -1.112115
      49A     -1.072657    50A     -1.060557    51A     -1.044753
      52A     -1.037647    53A     -1.025465    54A     -1.007807
      55A     -0.995188    56A     -0.977519    57A     -0.947859
      58A     -0.927952    59A     -0.923090    60A     -0.898886
      61A     -0.868980    62A     -0.866203    63A     -0.854727
      64A     -0.844463    65A     -0.837690    66A     -0.830502
      67A     -0.823740    68A     -0.805422    69A     -0.779262
      70A     -0.752462    71A     -0.735833    72A     -0.730762
      73A     -0.719394    74A     -0.706283    75A     -0.695901
      76A     -0.680053    77A     -0.671608    78A     -0.663343
      79A     -0.659500    80A     -0.654658    81A     -0.651924
      82A     -0.644425    83A     -0.640879    84A     -0.629016
      85A     -0.622825    86A     -0.621084    87A     -0.611404
      88A     -0.608291    89A     -0.606624    90A     -0.602819
      91A     -0.600455    92A     -0.596321    93A     -0.594874
      94A     -0.588593    95A     -0.586560    96A     -0.580999
      97A     -0.579914    98A     -0.571685    99A     -0.567341
     100A     -0.556723   101A     -0.548755   102A     -0.540284
     103A     -0.529390   104A     -0.526456   105A     -0.525021
     106A     -0.518985   107A     -0.515494   108A     -0.510755
     109A     -0.509035   110A     -0.504940   111A     -0.501893
     112A     -0.495962   113A     -0.485637   114A     -0.480198
     115A     -0.463120   116A     -0.449065   117A     -0.437916
     118A     -0.435461   119A     -0.428247   120A     -0.427207
     121A     -0.412316   122A     -0.408275   123A     -0.395523
     124A     -0.378935   125A     -0.370852   126A     -0.345366
     127A     -0.343666   128A     -0.342136   129A     -0.315321
     130A     -0.311308   131A     -0.291919

  @DF-RHF Final Energy: -1572.36868876929884

   => Energetics <=

    Nuclear Repulsion Energy =           3813.9292335423629083
    One-Electron Energy =               -9726.3600747433083598
    Two-Electron Energy =                4340.0621524316466093
    Total Energy =                      -1572.3686887692983873

  Dipole Moment: [D]
     X:     0.2023      Y:     6.4294      Z:    -0.2588     Total:     6.4377

  Basis Set: (6-311++G** AUX)
    Blend: AUG-CC-PVTZ-RI
	 Reference Energy          =   -1572.3686887692988421 [Eh]
	 Singles Energy            =      -0.0000000000000000 [Eh]
	 Same-Spin Energy          =      -1.4714221299419226 [Eh]
	 Opposite-Spin Energy      =      -4.0480793804034061 [Eh]
	 Correlation Energy        =      -5.5195015103453287 [Eh]
	 Total Energy              =   -1577.8881902796442773 [Eh]

	 ================> DF-SCS-MP2 Energies <==================
	-----------------------------------------------------------
	 SCS Same-Spin Scale       =       0.3333333333333333 [-]
	 SCS Opposite-Spin Scale   =       1.2000000000000000 [-]
	 SCS Same-Spin Energy      =      -0.4904740433139742 [Eh]
	 SCS Opposite-Spin Energy  =      -4.8576952564840870 [Eh]
	 SCS Correlation Energy    =      -5.3481692997980614 [Eh]
	 SCS Total Energy          =   -1577.7168580690968156 [Eh]
	-----------------------------------------------------------

*** Psi4 exiting successfully. Buy a developer a beer!
