                               Psi4 1.3.2 release

  ==> Input File <==

--------------------------------------------------------------------------
molecule {
0 1
 C    0.542831    3.748555    1.735225
 C   -0.838893    3.736410    1.505578
 C   -1.493660    2.520533    1.226332
 C   -0.677514    1.362186    1.238840
 N    0.643539    1.354804    1.454820
 C    1.238067    2.535229    1.690364
 C   -2.960710    2.416999    0.891955
 C   -3.863366    3.493874    0.860216
 C   -5.171075    3.185444    0.466656
 N   -5.586367    1.966577    0.128669
 C   -4.653262    0.995446    0.189251
 N   -3.388146    1.183806    0.563109
 N   -5.083704   -0.266722   -0.165836
 C   -4.433471   -1.547919   -0.172862
 C   -5.213484   -2.731975   -0.000589
 C   -4.535134   -3.961881   -0.024257
 C   -3.149343   -4.087641   -0.177427
 C   -2.400206   -2.917624   -0.332052
 C   -3.049403   -1.675131   -0.347037
 N   -0.986679   -2.862574   -0.451388
 C   -0.206126   -2.557503   -1.538621
 C    1.277770   -2.322509   -1.318376
 C    2.002876   -2.766989   -0.199575
 C    3.367290   -2.490021   -0.079844
 C    4.062920   -1.770836   -1.069680
 C    3.313859   -1.280847   -2.156472
 C    1.953111   -1.565189   -2.291507
 C    5.557931   -1.475069   -0.938140
 N    6.030464   -0.253406   -0.266447
 C    5.920444   -0.156818    1.207714
 C    4.681144    0.610254    1.734647
 N    4.505096    1.957284    1.142847
 C    5.342224    3.030846    1.692721
 C    4.513919    1.809738   -0.332629
 C    5.752168    1.060975   -0.891159
 O   -0.686197   -2.418409   -2.651348
 C   -6.719863   -2.711488    0.196930
 H    1.075473    4.673794    1.933575
 H   -1.374551    4.682507    1.525587
 H   -1.111704    0.383202    1.060152
 H    2.314350    2.510379    1.840453
 H   -3.605019    4.516836    1.104371
 H   -5.947422    3.947311    0.404621
 H   -6.076451   -0.252052   -0.345045
 H   -5.102966   -4.882780    0.104230
 H   -2.663312   -5.055533   -0.171813
 H   -2.465413   -0.779736   -0.499471
 H   -0.592992   -2.999926    0.468363
 H    1.504745   -3.351829    0.568015
 H    3.899995   -2.853816    0.798790
 H    3.802884   -0.683840   -2.925306
 H    1.396008   -1.202797   -3.152217
 H    6.025263   -2.316669   -0.407392
 H    5.981295   -1.449503   -1.952699
 H    5.970266   -1.305236    1.723888
 H    7.116893    0.560387    1.677093
 H    4.720380    0.707972    2.958691
 H    3.439388   -0.175744    1.389488
 H    6.403503    2.844071    1.494307
 H    5.193343    3.107167    2.776127
 H    5.063278    3.992824    1.247292
 H    4.410968    2.962027   -0.868685
 H    3.275096    1.035352   -0.694103
 H    6.926253    1.906192   -0.641451
 H    5.669650    0.945548   -2.074995
 H   -7.257349   -2.328804   -0.682565
 H   -6.997231   -2.078634    1.044469
 H   -7.131633   -3.703111    0.401643
}
memory 20GB
set_num_threads(6)
psi4_io.set_default_path("/scratch/bdw2292")
set freeze_core True
E, wfn = energy('mp2/6-311++G**',return_wfn=True)
oeprop(wfn,"WIBERG_LOWDIN_INDICES")
clean()
--------------------------------------------------------------------------

    Molecular point group: c1

    Geometry (in Angstrom), charge = 0, multiplicity = 1:

       Center              X                  Y                   Z               Mass
    ------------   -----------------  -----------------  -----------------  -----------------
         C            0.601721376906     3.866808507521     1.664959565314    12.000000000000
         C           -0.780002623094     3.854663507521     1.435312565314    12.000000000000
         C           -1.434769623094     2.638786507521     1.156066565314    12.000000000000
         C           -0.618623623094     1.480439507521     1.168574565314    12.000000000000
         N            0.702429376906     1.473057507521     1.384554565314    14.003074004430
         C            1.296957376906     2.653482507521     1.620098565314    12.000000000000
         C           -2.901819623094     2.535252507521     0.821689565314    12.000000000000
         C           -3.804475623094     3.612127507521     0.789950565314    12.000000000000
         C           -5.112184623094     3.303697507521     0.396390565314    12.000000000000
         N           -5.527476623094     2.084830507521     0.058403565314    14.003074004430
         C           -4.594371623094     1.113699507521     0.118985565314    12.000000000000
         N           -3.329255623094     1.302059507521     0.492843565314    14.003074004430
         N           -5.024813623094    -0.148468492479    -0.236101434686    14.003074004430
         C           -4.374580623094    -1.429665492479    -0.243127434686    12.000000000000
         C           -5.154593623094    -2.613721492479    -0.070854434686    12.000000000000
         C           -4.476243623094    -3.843627492479    -0.094522434686    12.000000000000
         C           -3.090452623094    -3.969387492479    -0.247692434686    12.000000000000
         C           -2.341315623094    -2.799370492479    -0.402317434686    12.000000000000
         C           -2.990512623094    -1.556877492479    -0.417302434686    12.000000000000
         N           -0.927788623094    -2.744320492479    -0.521653434686    14.003074004430
         C           -0.147235623094    -2.439249492479    -1.608886434686    12.000000000000
         C            1.336660376906    -2.204255492479    -1.388641434686    12.000000000000
         C            2.061766376906    -2.648735492479    -0.269840434686    12.000000000000
         C            3.426180376906    -2.371767492479    -0.150109434686    12.000000000000
         C            4.121810376906    -1.652582492479    -1.139945434686    12.000000000000
         C            3.372749376906    -1.162593492479    -2.226737434686    12.000000000000
         C            2.012001376906    -1.446935492479    -2.361772434686    12.000000000000
         C            5.616821376906    -1.356815492479    -1.008405434686    12.000000000000
         N            6.089354376906    -0.135152492479    -0.336712434686    14.003074004430
         C            5.979334376906    -0.038564492479     1.137448565314    12.000000000000
         C            4.740034376906     0.728507507521     1.664381565314    12.000000000000
         N            4.563986376906     2.075537507521     1.072581565314    14.003074004430
         C            5.401114376906     3.149099507521     1.622455565314    12.000000000000
         C            4.572809376906     1.927991507521    -0.402894434686    12.000000000000
         C            5.811058376906     1.179228507521    -0.961424434686    12.000000000000
         O           -0.627306623094    -2.300155492479    -2.721613434686    15.994914619570
         C           -6.660972623094    -2.593234492479     0.126664565314    12.000000000000
         H            1.134363376906     4.792047507521     1.863309565314     1.007825032230
         H           -1.315660623094     4.800760507521     1.455321565314     1.007825032230
         H           -1.052813623094     0.501455507521     0.989886565314     1.007825032230
         H            2.373240376906     2.628632507521     1.770187565314     1.007825032230
         H           -3.546128623094     4.635089507521     1.034105565314     1.007825032230
         H           -5.888531623094     4.065564507521     0.334355565314     1.007825032230
         H           -6.017560623094    -0.133798492479    -0.415310434686     1.007825032230
         H           -5.044075623094    -4.764526492479     0.033964565314     1.007825032230
         H           -2.604421623094    -4.937279492479    -0.242078434686     1.007825032230
         H           -2.406522623094    -0.661482492479    -0.569736434686     1.007825032230
         H           -0.534101623094    -2.881672492479     0.398097565314     1.007825032230
         H            1.563635376906    -3.233575492479     0.497749565314     1.007825032230
         H            3.958885376906    -2.735562492479     0.728524565314     1.007825032230
         H            3.861774376906    -0.565586492479    -2.995571434686     1.007825032230
         H            1.454898376906    -1.084543492479    -3.222482434686     1.007825032230
         H            6.084153376906    -2.198415492479    -0.477657434686     1.007825032230
         H            6.040185376906    -1.331249492479    -2.022964434686     1.007825032230
         H            6.029156376906    -1.186982492479     1.653622565314     1.007825032230
         H            7.175783376906     0.678640507521     1.606827565314     1.007825032230
         H            4.779270376906     0.826225507521     2.888425565314     1.007825032230
         H            3.498278376906    -0.057490492479     1.319222565314     1.007825032230
         H            6.462393376906     2.962324507521     1.424041565314     1.007825032230
         H            5.252233376906     3.225420507521     2.705861565314     1.007825032230
         H            5.122168376906     4.111077507521     1.177026565314     1.007825032230
         H            4.469858376906     3.080280507521    -0.938950434686     1.007825032230
         H            3.333986376906     1.153605507521    -0.764368434686     1.007825032230
         H            6.985143376906     2.024445507521    -0.711716434686     1.007825032230
         H            5.728540376906     1.063801507521    -2.145260434686     1.007825032230
         H           -7.198458623094    -2.210550492479    -0.752830434686     1.007825032230
         H           -6.938340623094    -1.960380492479     0.974203565314     1.007825032230
         H           -7.072742623094    -3.584857492479     0.331377565314     1.007825032230

  Charge       = 0
  Multiplicity = 1
  Basis Set: 6-311++G**
    Blend: 6-311++G**
  Basis Set: (6-311++G** AUX)
    Blend: AUG-CC-PVTZ-JKFIT

    Orbital Energies [Eh]
    ---------------------

    Doubly Occupied:

       1A    -20.514974     2A    -15.595900     3A    -15.587995
       4A    -15.571458     5A    -15.565496     6A    -15.565295
       7A    -15.563811     8A    -15.557630     9A    -11.364639
      10A    -11.361561    11A    -11.323553    12A    -11.321192
      13A    -11.315781    14A    -11.314864    15A    -11.311302
      16A    -11.304436    17A    -11.295156    18A    -11.282110
      19A    -11.279980    20A    -11.277409    21A    -11.275771
      22A    -11.273466    23A    -11.262886    24A    -11.256784
      25A    -11.256706    26A    -11.256220    27A    -11.255492
      28A    -11.253679    29A    -11.246722    30A    -11.246631
      31A    -11.246264    32A    -11.243484    33A    -11.241851
      34A    -11.241245    35A    -11.236974    36A    -11.235426
      37A    -11.229557    38A     -1.381877    39A     -1.336971
      40A     -1.258364    41A     -1.248690    42A     -1.246303
      43A     -1.235794    44A     -1.205951    45A     -1.199704
      46A     -1.160578    47A     -1.138251    48A     -1.100679
      49A     -1.064104    50A     -1.056682    51A     -1.037153
      52A     -1.032359    53A     -1.022690    54A     -1.006615
      55A     -0.992157    56A     -0.979075    57A     -0.946467
      58A     -0.930179    59A     -0.912697    60A     -0.893013
      61A     -0.867467    62A     -0.857443    63A     -0.845315
      64A     -0.841040    65A     -0.834022    66A     -0.825778
      67A     -0.818503    68A     -0.803456    69A     -0.782157
      70A     -0.745692    71A     -0.739217    72A     -0.723638
      73A     -0.710446    74A     -0.694313    75A     -0.689495
      76A     -0.675191    77A     -0.670371    78A     -0.656726
      79A     -0.656303    80A     -0.651832    81A     -0.646359
      82A     -0.642679    83A     -0.635048    84A     -0.630478
      85A     -0.624482    86A     -0.618438    87A     -0.609876
      88A     -0.608756    89A     -0.601397    90A     -0.594790
      91A     -0.593182    92A     -0.591685    93A     -0.587022
      94A     -0.581878    95A     -0.580484    96A     -0.575916
      97A     -0.574114    98A     -0.571108    99A     -0.566589
     100A     -0.548025   101A     -0.544520   102A     -0.532899
     103A     -0.527187   104A     -0.522628   105A     -0.521244
     106A     -0.515448   107A     -0.513817   108A     -0.505554
     109A     -0.504552   110A     -0.503396   111A     -0.498743
     112A     -0.491198   113A     -0.480239   114A     -0.468111
     115A     -0.463947   116A     -0.439637   117A     -0.431428
     118A     -0.426722   119A     -0.424414   120A     -0.404206
     121A     -0.402121   122A     -0.397342   123A     -0.385494
     124A     -0.384838   125A     -0.364181   126A     -0.345387
     127A     -0.340145   128A     -0.331607   129A     -0.326633
     130A     -0.315892   131A     -0.295909

  @DF-RHF Final Energy: -1572.31411360006018

   => Energetics <=

    Nuclear Repulsion Energy =           3827.7834527538229850
    One-Electron Energy =               -9754.9947327927820879
    Two-Electron Energy =                4354.8971664388982390
    Total Energy =                      -1572.3141136000604092

  Dipole Moment: [D]
     X:     0.9174      Y:     2.5558      Z:     3.9044     Total:     4.7558

  Basis Set: (6-311++G** AUX)
    Blend: AUG-CC-PVTZ-RI
	 Reference Energy          =   -1572.3141136000601819 [Eh]
	 Singles Energy            =      -0.0000000000000000 [Eh]
	 Same-Spin Energy          =      -1.4742553995054495 [Eh]
	 Opposite-Spin Energy      =      -4.0543936453908609 [Eh]
	 Correlation Energy        =      -5.5286490448963104 [Eh]
	 Total Energy              =   -1577.8427626449565651 [Eh]

	 ================> DF-SCS-MP2 Energies <==================
	-----------------------------------------------------------
	 SCS Same-Spin Scale       =       0.3333333333333333 [-]
	 SCS Opposite-Spin Scale   =       1.2000000000000000 [-]
	 SCS Same-Spin Energy      =      -0.4914184665018165 [Eh]
	 SCS Opposite-Spin Energy  =      -4.8652723744690327 [Eh]
	 SCS Correlation Energy    =      -5.3566908409708489 [Eh]
	 SCS Total Energy          =   -1577.6708044410311231 [Eh]
	-----------------------------------------------------------

*** Psi4 exiting successfully. Buy a developer a beer!
