                               Psi4 1.3.2 release

  ==> Input File <==

--------------------------------------------------------------------------
molecule {
0 1
 C    2.137487    4.997233   -3.668404
 C    3.150639    4.721854   -2.740156
 C    3.208510    3.461898   -2.110646
 C    2.207431    2.536913   -2.496309
 N    1.232691    2.780670   -3.381149
 C    1.203707    3.994527   -3.951015
 C    4.255197    3.089386   -1.089660
 C    5.318477    3.913253   -0.685911
 C    6.177950    3.369442    0.273704
 N    6.035152    2.162358    0.811469
 C    4.977085    1.445191    0.376967
 N    4.103088    1.866404   -0.542072
 N    4.839659    0.197511    0.964698
 C    3.937240   -0.909372    0.770494
 C    4.290534   -2.190186    1.295045
 C    3.388004   -3.244188    1.078728
 C    2.182300   -3.107839    0.382466
 C    1.840161   -1.842970   -0.108463
 C    2.723618   -0.767735    0.085307
 N    0.647447   -1.539640   -0.837312
 C   -0.313244   -2.380590   -1.340720
 C   -1.761647   -1.947642   -1.234387
 C   -2.189132   -0.614655   -1.348053
 C   -3.541577   -0.290867   -1.218321
 C   -4.515360   -1.280387   -0.986795
 C   -4.074064   -2.613365   -0.882705
 C   -2.724441   -2.947063   -1.015530
 C   -5.988143   -0.914658   -0.793378
 N   -6.452850   -0.482434    0.537278
 C   -6.105724    0.874665    1.015933
 C   -4.835428    0.943656    1.902536
 N   -4.848249    0.012521    3.055080
 C   -5.587357    0.448355    4.246244
 C   -5.139171   -1.355832    2.562348
 C   -6.395289   -1.449356    1.657297
 O   -0.031525   -3.454141   -1.846167
 C    5.581269   -2.461831    2.049161
 H    2.071342    5.963503   -4.159815
 H    3.868622    5.507352   -2.518583
 H    2.205086    1.535742   -2.079635
 H    0.401425    4.165373   -4.667160
 H    5.502540    4.905805   -1.078216
 H    7.032866    3.941773    0.632464
 H    5.607216    0.044956    1.601619
 H    3.631513   -4.237753    1.453063
 H    1.531662   -3.958104    0.214965
 H    2.472803    0.209569   -0.296450
 H    0.534776   -0.565755   -1.078461
 H   -1.462759    0.170017   -1.541336
 H   -3.838410    0.754602   -1.302690
 H   -4.790812   -3.411458   -0.692105
 H   -2.395442   -3.980708   -0.942255
 H   -6.240988   -0.108475   -1.497557
 H   -6.600390   -1.785267   -1.070117
 H   -6.080210    1.561240    0.213657
 H   -7.292994    1.336837    1.960273
 H   -4.734714    2.327522    2.418447
 H   -3.862659    0.722216    1.267473
 H   -6.660246    0.526535    4.037338
 H   -5.219970    1.424275    4.583130
 H   -5.439362   -0.266028    5.064268
 H   -5.192315   -2.045372    3.404129
 H   -3.957350   -1.770042    1.717163
 H   -7.613093   -1.145621    2.590633
 H   -6.537599   -2.623773    1.227807
 H    5.634268   -1.876672    2.978108
 H    6.461568   -2.202851    1.444091
 H    5.697580   -3.516254    2.335165
}
memory 20GB
set_num_threads(6)
psi4_io.set_default_path("/scratch/bdw2292")
set freeze_core True
E, wfn = energy('mp2/6-311++G**',return_wfn=True)
oeprop(wfn,"WIBERG_LOWDIN_INDICES")
clean()
--------------------------------------------------------------------------

    Molecular point group: c1

    Geometry (in Angstrom), charge = 0, multiplicity = 1:

       Center              X                  Y                   Z               Mass
    ------------   -----------------  -----------------  -----------------  -----------------
         C            1.969874542909     4.879485724090    -3.464941173414    12.000000000000
         C            2.983026542909     4.604106724090    -2.536693173414    12.000000000000
         C            3.040897542909     3.344150724090    -1.907183173414    12.000000000000
         C            2.039818542909     2.419165724090    -2.292846173414    12.000000000000
         N            1.065078542909     2.662922724090    -3.177686173414    14.003074004430
         C            1.036094542909     3.876779724090    -3.747552173414    12.000000000000
         C            4.087584542909     2.971638724090    -0.886197173414    12.000000000000
         C            5.150864542909     3.795505724090    -0.482448173414    12.000000000000
         C            6.010337542909     3.251694724090     0.477166826586    12.000000000000
         N            5.867539542909     2.044610724090     1.014931826586    14.003074004430
         C            4.809472542909     1.327443724090     0.580429826586    12.000000000000
         N            3.935475542909     1.748656724090    -0.338609173414    14.003074004430
         N            4.672046542909     0.079763724090     1.168160826586    14.003074004430
         C            3.769627542909    -1.027119275910     0.973956826586    12.000000000000
         C            4.122921542909    -2.307933275910     1.498507826586    12.000000000000
         C            3.220391542909    -3.361935275910     1.282190826586    12.000000000000
         C            2.014687542909    -3.225586275910     0.585928826586    12.000000000000
         C            1.672548542909    -1.960717275910     0.094999826586    12.000000000000
         C            2.556005542909    -0.885482275910     0.288769826586    12.000000000000
         N            0.479834542909    -1.657387275910    -0.633849173414    14.003074004430
         C           -0.480856457091    -2.498337275910    -1.137257173414    12.000000000000
         C           -1.929259457091    -2.065389275910    -1.030924173414    12.000000000000
         C           -2.356744457091    -0.732402275910    -1.144590173414    12.000000000000
         C           -3.709189457091    -0.408614275910    -1.014858173414    12.000000000000
         C           -4.682972457091    -1.398134275910    -0.783332173414    12.000000000000
         C           -4.241676457091    -2.731112275910    -0.679242173414    12.000000000000
         C           -2.892053457091    -3.064810275910    -0.812067173414    12.000000000000
         C           -6.155755457091    -1.032405275910    -0.589915173414    12.000000000000
         N           -6.620462457091    -0.600181275910     0.740740826586    14.003074004430
         C           -6.273336457091     0.756917724090     1.219395826586    12.000000000000
         C           -5.003040457091     0.825908724090     2.105998826586    12.000000000000
         N           -5.015861457091    -0.105226275910     3.258542826586    14.003074004430
         C           -5.754969457091     0.330607724090     4.449706826586    12.000000000000
         C           -5.306783457091    -1.473579275910     2.765810826586    12.000000000000
         C           -6.562901457091    -1.567103275910     1.860759826586    12.000000000000
         O           -0.199137457091    -3.571888275910    -1.642704173414    15.994914619570
         C            5.413656542909    -2.579578275910     2.252623826586    12.000000000000
         H            1.903729542909     5.845755724090    -3.956352173414     1.007825032230
         H            3.701009542909     5.389604724090    -2.315120173414     1.007825032230
         H            2.037473542909     1.417994724090    -1.876172173414     1.007825032230
         H            0.233812542909     4.047625724090    -4.463697173414     1.007825032230
         H            5.334927542909     4.788057724090    -0.874753173414     1.007825032230
         H            6.865253542909     3.824025724090     0.835926826586     1.007825032230
         H            5.439603542909    -0.072791275910     1.805081826586     1.007825032230
         H            3.463900542909    -4.355500275910     1.656525826586     1.007825032230
         H            1.364049542909    -4.075851275910     0.418427826586     1.007825032230
         H            2.305190542909     0.091821724090    -0.092987173414     1.007825032230
         H            0.367163542909    -0.683502275910    -0.874998173414     1.007825032230
         H           -1.630371457091     0.052269724090    -1.337873173414     1.007825032230
         H           -4.006022457091     0.636854724090    -1.099227173414     1.007825032230
         H           -4.958424457091    -3.529205275910    -0.488642173414     1.007825032230
         H           -2.563054457091    -4.098455275910    -0.738792173414     1.007825032230
         H           -6.408600457091    -0.226222275910    -1.294094173414     1.007825032230
         H           -6.768002457091    -1.903014275910    -0.866654173414     1.007825032230
         H           -6.247822457091     1.443492724090     0.417119826586     1.007825032230
         H           -7.460606457091     1.219089724090     2.163735826586     1.007825032230
         H           -4.902326457091     2.209774724090     2.621909826586     1.007825032230
         H           -4.030271457091     0.604468724090     1.470935826586     1.007825032230
         H           -6.827858457091     0.408787724090     4.240800826586     1.007825032230
         H           -5.387582457091     1.306527724090     4.786592826586     1.007825032230
         H           -5.606974457091    -0.383775275910     5.267730826586     1.007825032230
         H           -5.359927457091    -2.163119275910     3.607591826586     1.007825032230
         H           -4.124962457091    -1.887789275910     1.920625826586     1.007825032230
         H           -7.780705457091    -1.263368275910     2.794095826586     1.007825032230
         H           -6.705211457091    -2.741520275910     1.431269826586     1.007825032230
         H            5.466655542909    -1.994419275910     3.181570826586     1.007825032230
         H            6.293955542909    -2.320598275910     1.647553826586     1.007825032230
         H            5.529967542909    -3.634001275910     2.538627826586     1.007825032230

  Charge       = 0
  Multiplicity = 1
  Basis Set: 6-311++G**
    Blend: 6-311++G**
  Basis Set: (6-311++G** AUX)
    Blend: AUG-CC-PVTZ-JKFIT

    Orbital Energies [Eh]
    ---------------------

    Doubly Occupied:

       1A    -20.535547     2A    -15.602295     3A    -15.592198
       4A    -15.582883     5A    -15.575367     6A    -15.572269
       7A    -15.568445     8A    -15.556276     9A    -11.374038
      10A    -11.369065    11A    -11.332771    12A    -11.325447
      13A    -11.312102    14A    -11.306478    15A    -11.305689
      16A    -11.301487    17A    -11.299860    18A    -11.297496
      19A    -11.297065    20A    -11.295325    21A    -11.286374
      22A    -11.282441    23A    -11.277327    24A    -11.262379
      25A    -11.261959    26A    -11.260494    27A    -11.260318
      28A    -11.253289    29A    -11.252135    30A    -11.250280
      31A    -11.249381    32A    -11.245051    33A    -11.244403
      34A    -11.240768    35A    -11.234205    36A    -11.229504
      37A    -11.226296    38A     -1.396133    39A     -1.342940
      40A     -1.274803    41A     -1.250701    42A     -1.248435
      43A     -1.240500    44A     -1.207872    45A     -1.202436
      46A     -1.166057    47A     -1.139019    48A     -1.113125
      49A     -1.073497    50A     -1.062046    51A     -1.046322
      52A     -1.037800    53A     -1.028750    54A     -1.007706
      55A     -1.000241    56A     -0.979929    57A     -0.946299
      58A     -0.929925    59A     -0.923973    60A     -0.899453
      61A     -0.870476    62A     -0.869286    63A     -0.855638
      64A     -0.850281    65A     -0.842053    66A     -0.832501
      67A     -0.823655    68A     -0.807805    69A     -0.779418
      70A     -0.752835    71A     -0.738039    72A     -0.733384
      73A     -0.720082    74A     -0.709178    75A     -0.700183
      76A     -0.682280    77A     -0.678214    78A     -0.666744
      79A     -0.658990    80A     -0.655683    81A     -0.652291
      82A     -0.649987    83A     -0.641726    84A     -0.632506
      85A     -0.626284    86A     -0.619144    87A     -0.614832
      88A     -0.612528    89A     -0.610226    90A     -0.606584
      91A     -0.602442    92A     -0.600207    93A     -0.598354
      94A     -0.590665    95A     -0.583449    96A     -0.580729
      97A     -0.580186    98A     -0.575099    99A     -0.560178
     100A     -0.558266   101A     -0.547897   102A     -0.541272
     103A     -0.535064   104A     -0.531638   105A     -0.527700
     106A     -0.523374   107A     -0.513219   108A     -0.508124
     109A     -0.507720   110A     -0.503927   111A     -0.500135
     112A     -0.494540   113A     -0.487462   114A     -0.481893
     115A     -0.459198   116A     -0.450548   117A     -0.438486
     118A     -0.438360   119A     -0.426442   120A     -0.421790
     121A     -0.412947   122A     -0.397311   123A     -0.395541
     124A     -0.381173   125A     -0.372012   126A     -0.349534
     127A     -0.346364   128A     -0.343832   129A     -0.314623
     130A     -0.310610   131A     -0.287108

  @DF-RHF Final Energy: -1572.30198241220819

   => Energetics <=

    Nuclear Repulsion Energy =           3663.6826837547814648
    One-Electron Energy =               -9425.3515158368609264
    Two-Electron Energy =                4189.3668496698710442
    Total Energy =                      -1572.3019824122084174

  Dipole Moment: [D]
     X:     1.4299      Y:     5.4041      Z:     0.3172     Total:     5.5991

  Basis Set: (6-311++G** AUX)
    Blend: AUG-CC-PVTZ-RI
	 Reference Energy          =   -1572.3019824122081900 [Eh]
	 Singles Energy            =      -0.0000000000000000 [Eh]
	 Same-Spin Energy          =      -1.4694397387961060 [Eh]
	 Opposite-Spin Energy      =      -4.0484304748362758 [Eh]
	 Correlation Energy        =      -5.5178702136323814 [Eh]
	 Total Energy              =   -1577.8198526258406673 [Eh]

	 ================> DF-SCS-MP2 Energies <==================
	-----------------------------------------------------------
	 SCS Same-Spin Scale       =       0.3333333333333333 [-]
	 SCS Opposite-Spin Scale   =       1.2000000000000000 [-]
	 SCS Same-Spin Energy      =      -0.4898132462653687 [Eh]
	 SCS Opposite-Spin Energy  =      -4.8581165698035305 [Eh]
	 SCS Correlation Energy    =      -5.3479298160688993 [Eh]
	 SCS Total Energy          =   -1577.6499122282771168 [Eh]
	-----------------------------------------------------------

*** Psi4 exiting successfully. Buy a developer a beer!
