                               Psi4 1.3.2 release

  ==> Input File <==

--------------------------------------------------------------------------
molecule {
0 1
 C    0.287384    4.660735   -0.939047
 C    1.603577    4.512604   -0.479648
 C    2.154508    3.224834   -0.325079
 C    1.305824    2.147958   -0.683273
 N    0.048205    2.266703   -1.127613
 C   -0.446346    3.508599   -1.244797
 C    3.555710    2.968617    0.174410
 C    4.511623    3.951592    0.476282
 C    5.756015    3.475824    0.905339
 N    6.061523    2.189448    1.051035
 C    5.075620    1.315133    0.760056
 N    3.859199    1.665986    0.333261
 N    5.391574   -0.024263    0.934726
 C    4.690978   -1.246937    0.629416
 C    5.423346   -2.464134    0.487291
 C    4.689033   -3.621861    0.177959
 C    3.300648   -3.641823   -0.000682
 C    2.595896   -2.443507    0.153129
 C    3.300085   -1.271705    0.472307
 N    1.183894   -2.269459   -0.007380
 C    0.208141   -3.128165   -0.456093
 C   -1.178879   -2.564438   -0.705638
 C   -1.420580   -1.228411   -1.067847
 C   -2.723926   -0.773380   -1.275298
 C   -3.837603   -1.623355   -1.131899
 C   -3.575884   -2.967774   -0.796625
 C   -2.275431   -3.434337   -0.588996
 C   -5.274132   -1.136586   -1.364023
 N   -5.785615    0.172387   -0.904595
 C   -5.060641    0.960753    0.119007
 C   -5.504873    0.615728    1.563359
 N   -6.963892    0.694901    1.814010
 C   -7.493146    2.029107    2.123289
 C   -7.685185   -0.066086    0.765533
 C   -7.242452    0.281530   -0.678566
 O    0.424374   -4.316832   -0.636901
 C    6.932774   -2.553648    0.631406
 H   -0.159852    5.643421   -1.056695
 H    2.167749    5.409561   -0.236163
 H    1.675578    1.129874   -0.628240
 H   -1.470873    3.580801   -1.606796
 H    4.341058    5.016321    0.374928
 H    6.557115    4.174078    1.146207
 H    6.357301   -0.110867    1.214228
 H    5.215512   -4.567201    0.051269
 H    2.774996   -4.553742   -0.255754
 H    2.765270   -0.344134    0.599489
 H    0.859107   -1.334862    0.195863
 H   -0.587465   -0.542687   -1.205322
 H   -2.856112    0.260689   -1.591579
 H   -4.398138   -3.675908   -0.694821
 H   -2.089207   -4.474595   -0.333087
 H   -5.443344   -1.101771   -2.451282
 H   -5.910254   -1.932779   -0.949580
 H   -4.211848    0.920439   -0.000404
 H   -5.448545    2.467817   -0.089578
 H   -4.831971    1.495644    2.469031
 H   -5.055603   -0.832568    1.840891
 H   -7.385388    2.702640    1.265142
 H   -6.961736    2.458890    2.980177
 H   -8.555043    1.961967    2.387053
 H   -8.716152    0.029360    0.903604
 H   -7.323075   -1.561450    0.975670
 H   -7.663707    1.683340   -0.960260
 H   -7.963992   -0.613715   -1.617840
 H    7.252023   -2.318233    1.656461
 H    7.443833   -1.852638   -0.043596
 H    7.326945   -3.552773    0.399692
}
memory 20GB
set_num_threads(6)
psi4_io.set_default_path("/scratch/bdw2292")
set freeze_core True
E, wfn = energy('mp2/6-311++G**',return_wfn=True)
oeprop(wfn,"WIBERG_LOWDIN_INDICES")
clean()
--------------------------------------------------------------------------

    Molecular point group: c1

    Geometry (in Angstrom), charge = 0, multiplicity = 1:

       Center              X                  Y                   Z               Mass
    ------------   -----------------  -----------------  -----------------  -----------------
         C            0.211630396710     4.668524445134    -0.931583429639    12.000000000000
         C            1.527823396710     4.520393445134    -0.472184429639    12.000000000000
         C            2.078754396710     3.232623445134    -0.317615429639    12.000000000000
         C            1.230070396710     2.155747445134    -0.675809429639    12.000000000000
         N           -0.027548603290     2.274492445134    -1.120149429639    14.003074004430
         C           -0.522099603290     3.516388445134    -1.237333429639    12.000000000000
         C            3.479956396710     2.976406445134     0.181873570361    12.000000000000
         C            4.435869396710     3.959381445134     0.483745570361    12.000000000000
         C            5.680261396710     3.483613445134     0.912802570361    12.000000000000
         N            5.985769396710     2.197237445134     1.058498570361    14.003074004430
         C            4.999866396710     1.322922445134     0.767519570361    12.000000000000
         N            3.783445396710     1.673775445134     0.340724570361    14.003074004430
         N            5.315820396710    -0.016473554866     0.942189570361    14.003074004430
         C            4.615224396710    -1.239147554866     0.636879570361    12.000000000000
         C            5.347592396710    -2.456344554866     0.494754570361    12.000000000000
         C            4.613279396710    -3.614071554866     0.185422570361    12.000000000000
         C            3.224894396710    -3.634033554866     0.006781570361    12.000000000000
         C            2.520142396710    -2.435717554866     0.160592570361    12.000000000000
         C            3.224331396710    -1.263915554866     0.479770570361    12.000000000000
         N            1.108140396710    -2.261669554866     0.000083570361    14.003074004430
         C            0.132387396710    -3.120375554866    -0.448629429639    12.000000000000
         C           -1.254632603290    -2.556648554866    -0.698174429639    12.000000000000
         C           -1.496333603290    -1.220621554866    -1.060383429639    12.000000000000
         C           -2.799679603290    -0.765590554866    -1.267834429639    12.000000000000
         C           -3.913356603290    -1.615565554866    -1.124435429639    12.000000000000
         C           -3.651637603290    -2.959984554866    -0.789161429639    12.000000000000
         C           -2.351184603290    -3.426547554866    -0.581532429639    12.000000000000
         C           -5.349885603290    -1.128796554866    -1.356559429639    12.000000000000
         N           -5.861368603290     0.180176445134    -0.897131429639    14.003074004430
         C           -5.136394603290     0.968542445134     0.126470570361    12.000000000000
         C           -5.580626603290     0.623517445134     1.570822570361    12.000000000000
         N           -7.039645603290     0.702690445134     1.821473570361    14.003074004430
         C           -7.568899603290     2.036896445134     2.130752570361    12.000000000000
         C           -7.760938603290    -0.058296554866     0.772996570361    12.000000000000
         C           -7.318205603290     0.289319445134    -0.671102429639    12.000000000000
         O            0.348620396710    -4.309042554866    -0.629437429639    15.994914619570
         C            6.857020396710    -2.545858554866     0.638869570361    12.000000000000
         H           -0.235605603290     5.651210445134    -1.049231429639     1.007825032230
         H            2.091995396710     5.417350445134    -0.228699429639     1.007825032230
         H            1.599824396710     1.137663445134    -0.620776429639     1.007825032230
         H           -1.546626603290     3.588590445134    -1.599332429639     1.007825032230
         H            4.265304396710     5.024110445134     0.382391570361     1.007825032230
         H            6.481361396710     4.181867445134     1.153670570361     1.007825032230
         H            6.281547396710    -0.103077554866     1.221691570361     1.007825032230
         H            5.139758396710    -4.559411554866     0.058732570361     1.007825032230
         H            2.699242396710    -4.545952554866    -0.248290429639     1.007825032230
         H            2.689516396710    -0.336344554866     0.606952570361     1.007825032230
         H            0.783353396710    -1.327072554866     0.203326570361     1.007825032230
         H           -0.663218603290    -0.534897554866    -1.197858429639     1.007825032230
         H           -2.931865603290     0.268478445134    -1.584115429639     1.007825032230
         H           -4.473891603290    -3.668118554866    -0.687357429639     1.007825032230
         H           -2.164960603290    -4.466805554866    -0.325623429639     1.007825032230
         H           -5.519097603290    -1.093981554866    -2.443818429639     1.007825032230
         H           -5.986007603290    -1.924989554866    -0.942116429639     1.007825032230
         H           -4.287601603290     0.928228445134     0.007059570361     1.007825032230
         H           -5.524298603290     2.475606445134    -0.082114429639     1.007825032230
         H           -4.907724603290     1.503433445134     2.476494570361     1.007825032230
         H           -5.131356603290    -0.824778554866     1.848354570361     1.007825032230
         H           -7.461141603290     2.710429445134     1.272605570361     1.007825032230
         H           -7.037489603290     2.466679445134     2.987640570361     1.007825032230
         H           -8.630796603290     1.969756445134     2.394516570361     1.007825032230
         H           -8.791905603290     0.037149445134     0.911067570361     1.007825032230
         H           -7.398828603290    -1.553660554866     0.983133570361     1.007825032230
         H           -7.739460603290     1.691129445134    -0.952796429639     1.007825032230
         H           -8.039745603290    -0.605925554866    -1.610376429639     1.007825032230
         H            7.176269396710    -2.310443554866     1.663924570361     1.007825032230
         H            7.368079396710    -1.844848554866    -0.036132429639     1.007825032230
         H            7.251191396710    -3.544983554866     0.407155570361     1.007825032230

  Charge       = 0
  Multiplicity = 1
  Basis Set: 6-311++G**
    Blend: 6-311++G**
  Basis Set: (6-311++G** AUX)
    Blend: AUG-CC-PVTZ-JKFIT

    Orbital Energies [Eh]
    ---------------------

    Doubly Occupied:

       1A    -20.520011     2A    -15.603452     3A    -15.601730
       4A    -15.587371     5A    -15.574333     6A    -15.572249
       7A    -15.570649     8A    -15.569050     9A    -11.375410
      10A    -11.363849    11A    -11.343038    12A    -11.335588
      13A    -11.334546    14A    -11.314258    15A    -11.307362
      16A    -11.301112    17A    -11.300690    18A    -11.300680
      19A    -11.292854    20A    -11.290390    21A    -11.289426
      22A    -11.280426    23A    -11.277455    24A    -11.267524
      25A    -11.265441    26A    -11.257643    27A    -11.256457
      28A    -11.253602    29A    -11.252550    30A    -11.249891
      31A    -11.247097    32A    -11.246980    33A    -11.245399
      34A    -11.239616    35A    -11.235167    36A    -11.231067
      37A    -11.224794    38A     -1.386061    39A     -1.344535
      40A     -1.278600    41A     -1.253228    42A     -1.250882
      43A     -1.241225    44A     -1.209836    45A     -1.207977
      46A     -1.162589    47A     -1.139523    48A     -1.115724
      49A     -1.075311    50A     -1.060850    51A     -1.048562
      52A     -1.038270    53A     -1.024157    54A     -1.016376
      55A     -1.007717    56A     -0.981082    57A     -0.948117
      58A     -0.930942    59A     -0.926412    60A     -0.900955
      61A     -0.885600    62A     -0.872608    63A     -0.858255
      64A     -0.853823    65A     -0.840149    66A     -0.829778
      67A     -0.823523    68A     -0.804956    69A     -0.778142
      70A     -0.754112    71A     -0.740029    72A     -0.731501
      73A     -0.721755    74A     -0.713661    75A     -0.699022
      76A     -0.682900    77A     -0.681526    78A     -0.667225
      79A     -0.662632    80A     -0.657021    81A     -0.651794
      82A     -0.639767    83A     -0.637979    84A     -0.633499
      85A     -0.628216    86A     -0.621629    87A     -0.620865
      88A     -0.612581    89A     -0.609388    90A     -0.606613
      91A     -0.602453    92A     -0.598519    93A     -0.595702
      94A     -0.593725    95A     -0.590590    96A     -0.582839
      97A     -0.580701    98A     -0.571392    99A     -0.567928
     100A     -0.561458   101A     -0.549900   102A     -0.547343
     103A     -0.544194   104A     -0.524115   105A     -0.520084
     106A     -0.514043   107A     -0.509395   108A     -0.508093
     109A     -0.499671   110A     -0.499342   111A     -0.493956
     112A     -0.488526   113A     -0.485016   114A     -0.479232
     115A     -0.470871   116A     -0.452165   117A     -0.443152
     118A     -0.427477   119A     -0.425550   120A     -0.420436
     121A     -0.414782   122A     -0.400295   123A     -0.388150
     124A     -0.386995   125A     -0.373408   126A     -0.346151
     127A     -0.344547   128A     -0.339098   129A     -0.321027
     130A     -0.314219   131A     -0.290445

  @DF-RHF Final Energy: -1572.17719104958633

   => Energetics <=

    Nuclear Repulsion Energy =           3675.2905137032134917
    One-Electron Energy =               -9448.1041832547634840
    Two-Electron Energy =                4200.6364785019632109
    Total Energy =                      -1572.1771910495863267

  Dipole Moment: [D]
     X:     0.3654      Y:     7.2590      Z:     0.4629     Total:     7.2829

  Basis Set: (6-311++G** AUX)
    Blend: AUG-CC-PVTZ-RI
	 Reference Energy          =   -1572.1771910495863267 [Eh]
	 Singles Energy            =      -0.0000000000000000 [Eh]
	 Same-Spin Energy          =      -1.4693829045020026 [Eh]
	 Opposite-Spin Energy      =      -4.0504983077089101 [Eh]
	 Correlation Energy        =      -5.5198812122109127 [Eh]
	 Total Energy              =   -1577.6970722617973024 [Eh]

	 ================> DF-SCS-MP2 Energies <==================
	-----------------------------------------------------------
	 SCS Same-Spin Scale       =       0.3333333333333333 [-]
	 SCS Opposite-Spin Scale   =       1.2000000000000000 [-]
	 SCS Same-Spin Energy      =      -0.4897943015006675 [Eh]
	 SCS Opposite-Spin Energy  =      -4.8605979692506915 [Eh]
	 SCS Correlation Energy    =      -5.3503922707513594 [Eh]
	 SCS Total Energy          =   -1577.5275833203377260 [Eh]
	-----------------------------------------------------------

*** Psi4 exiting successfully. Buy a developer a beer!
