                               Psi4 1.3.2 release

  ==> Input File <==

--------------------------------------------------------------------------
molecule {
0 1
 C    2.047680    5.195302   -1.576384
 C    3.285355    4.539497   -1.550950
 C    3.376122    3.222073   -1.058621
 C    2.165664    2.654491   -0.591757
 N    0.975445    3.267788   -0.604188
 C    0.924291    4.515159   -1.094743
 C    4.664437    2.439607   -0.999831
 C    5.932345    2.968032   -1.296827
 C    7.011447    2.090413   -1.149971
 N    6.896402    0.821862   -0.767114
 C    5.642164    0.390711   -0.521438
 N    4.549265    1.150405   -0.623321
 N    5.559728   -0.934109   -0.130125
 C    4.483559   -1.809170    0.260409
 C    4.797751   -3.095395    0.798089
 C    3.724870   -3.913822    1.186821
 C    2.380796   -3.545776    1.067933
 C    2.082118   -2.293027    0.521682
 C    3.135342   -1.450988    0.127625
 N    0.762270   -1.780993    0.312978
 C   -0.461472   -2.220216    0.762500
 C   -1.616130   -1.311488    0.407085
 C   -1.927165   -0.206087    1.212703
 C   -2.947293    0.670557    0.835042
 C   -3.703879    0.458478   -0.334258
 C   -3.403403   -0.680876   -1.106449
 C   -2.375568   -1.555680   -0.746471
 C   -4.829776    1.413472   -0.736538
 N   -6.201294    1.177536   -0.256134
 C   -6.489427    1.341591    1.187340
 C   -6.410720    0.034859    2.018258
 N   -7.229897   -1.074749    1.474465
 C   -8.658124   -1.062194    1.810934
 C   -6.886240   -1.262475    0.044436
 C   -6.967502    0.034117   -0.802946
 O   -0.628393   -3.249590    1.393814
 C    6.219025   -3.602690    0.979115
 H    1.954352    6.207583   -1.958236
 H    4.156239    5.066468   -1.932711
 H    2.156169    1.657755   -0.163297
 H   -0.059975    4.981220   -1.090417
 H    6.116690    3.991211   -1.599801
 H    8.037726    2.402247   -1.341382
 H    6.491562   -1.317764   -0.085553
 H    3.931385   -4.897230    1.607146
 H    1.582241   -4.204567    1.385854
 H    2.908107   -0.490779   -0.305062
 H    0.722358   -0.937159   -0.242762
 H   -1.343236   -0.026914    2.112005
 H   -3.157305    1.533326    1.466642
 H   -3.976693   -0.889811   -2.009415
 H   -2.142036   -2.423625   -1.357757
 H   -4.552621    2.425122   -0.407415
 H   -4.880323    1.438043   -1.834518
 H   -5.789304    2.181219    1.655897
 H   -7.883258    1.852016    1.295433
 H   -6.764345    0.260000    3.232641
 H   -5.082266   -0.418891    2.051215
 H   -9.159748   -0.198545    1.360096
 H   -8.790207   -1.019767    2.898278
 H   -9.139482   -1.978725    1.450874
 H   -7.689553   -2.194112   -0.472445
 H   -5.595677   -1.765059    0.003482
 H   -8.383436    0.446115   -0.837604
 H   -6.666247   -0.167555   -1.893883
 H    6.827209   -2.946934    1.618653
 H    6.732350   -3.680983    0.016586
 H    6.258090   -4.595929    1.434030
}
memory 20GB
set_num_threads(6)
psi4_io.set_default_path("/scratch/bdw2292")
set freeze_core True
E, wfn = energy('mp2/6-311++G**',return_wfn=True)
oeprop(wfn,"WIBERG_LOWDIN_INDICES")
clean()
--------------------------------------------------------------------------

    Molecular point group: c1

    Geometry (in Angstrom), charge = 0, multiplicity = 1:

       Center              X                  Y                   Z               Mass
    ------------   -----------------  -----------------  -----------------  -----------------
         C            1.879070453142     5.129187743726    -1.608661947891    12.000000000000
         C            3.116745453142     4.473382743726    -1.583227947891    12.000000000000
         C            3.207512453142     3.155958743726    -1.090898947891    12.000000000000
         C            1.997054453142     2.588376743726    -0.624034947891    12.000000000000
         N            0.806835453142     3.201673743726    -0.636465947891    14.003074004430
         C            0.755681453142     4.449044743726    -1.127020947891    12.000000000000
         C            4.495827453142     2.373492743726    -1.032108947891    12.000000000000
         C            5.763735453142     2.901917743726    -1.329104947891    12.000000000000
         C            6.842837453142     2.024298743726    -1.182248947891    12.000000000000
         N            6.727792453142     0.755747743726    -0.799391947891    14.003074004430
         C            5.473554453142     0.324596743726    -0.553715947891    12.000000000000
         N            4.380655453142     1.084290743726    -0.655598947891    14.003074004430
         N            5.391118453142    -1.000223256274    -0.162402947891    14.003074004430
         C            4.314949453142    -1.875284256274     0.228131052109    12.000000000000
         C            4.629141453142    -3.161509256274     0.765811052109    12.000000000000
         C            3.556260453142    -3.979936256274     1.154543052109    12.000000000000
         C            2.212186453142    -3.611890256274     1.035655052109    12.000000000000
         C            1.913508453142    -2.359141256274     0.489404052109    12.000000000000
         C            2.966732453142    -1.517102256274     0.095347052109    12.000000000000
         N            0.593660453142    -1.847107256274     0.280700052109    14.003074004430
         C           -0.630081546858    -2.286330256274     0.730222052109    12.000000000000
         C           -1.784739546858    -1.377602256274     0.374807052109    12.000000000000
         C           -2.095774546858    -0.272201256274     1.180425052109    12.000000000000
         C           -3.115902546858     0.604442743726     0.802764052109    12.000000000000
         C           -3.872488546858     0.392363743726    -0.366535947891    12.000000000000
         C           -3.572012546858    -0.746990256274    -1.138726947891    12.000000000000
         C           -2.544177546858    -1.621794256274    -0.778748947891    12.000000000000
         C           -4.998385546858     1.347357743726    -0.768815947891    12.000000000000
         N           -6.369903546858     1.111421743726    -0.288411947891    14.003074004430
         C           -6.658036546858     1.275476743726     1.155062052109    12.000000000000
         C           -6.579329546858    -0.031255256274     1.985980052109    12.000000000000
         N           -7.398506546858    -1.140863256274     1.442187052109    14.003074004430
         C           -8.826733546858    -1.128308256274     1.778656052109    12.000000000000
         C           -7.054849546858    -1.328589256274     0.012158052109    12.000000000000
         C           -7.136111546858    -0.031997256274    -0.835223947891    12.000000000000
         O           -0.797002546858    -3.315704256274     1.361536052109    15.994914619570
         C            6.050415453142    -3.668804256274     0.946837052109    12.000000000000
         H            1.785742453142     6.141468743726    -1.990513947891     1.007825032230
         H            3.987629453142     5.000353743726    -1.964988947891     1.007825032230
         H            1.987559453142     1.591640743726    -0.195574947891     1.007825032230
         H           -0.228584546858     4.915105743726    -1.122694947891     1.007825032230
         H            5.948080453142     3.925096743726    -1.632078947891     1.007825032230
         H            7.869116453142     2.336132743726    -1.373659947891     1.007825032230
         H            6.322952453142    -1.383878256274    -0.117830947891     1.007825032230
         H            3.762775453142    -4.963344256274     1.574868052109     1.007825032230
         H            1.413631453142    -4.270681256274     1.353576052109     1.007825032230
         H            2.739497453142    -0.556893256274    -0.337339947891     1.007825032230
         H            0.553748453142    -1.003273256274    -0.275039947891     1.007825032230
         H           -1.511845546858    -0.093028256274     2.079727052109     1.007825032230
         H           -3.325914546858     1.467211743726     1.434364052109     1.007825032230
         H           -4.145302546858    -0.955925256274    -2.041692947891     1.007825032230
         H           -2.310645546858    -2.489739256274    -1.390034947891     1.007825032230
         H           -4.721230546858     2.359007743726    -0.439692947891     1.007825032230
         H           -5.048932546858     1.371928743726    -1.866795947891     1.007825032230
         H           -5.957913546858     2.115104743726     1.623619052109     1.007825032230
         H           -8.051867546858     1.785901743726     1.263155052109     1.007825032230
         H           -6.932954546858     0.193885743726     3.200363052109     1.007825032230
         H           -5.250875546858    -0.485005256274     2.018937052109     1.007825032230
         H           -9.328357546858    -0.264659256274     1.327818052109     1.007825032230
         H           -8.958816546858    -1.085881256274     2.866000052109     1.007825032230
         H           -9.308091546858    -2.044839256274     1.418596052109     1.007825032230
         H           -7.858162546858    -2.260226256274    -0.504722947891     1.007825032230
         H           -5.764286546858    -1.831173256274    -0.028795947891     1.007825032230
         H           -8.552045546858     0.380000743726    -0.869881947891     1.007825032230
         H           -6.834856546858    -0.233669256274    -1.926160947891     1.007825032230
         H            6.658599453142    -3.013048256274     1.586375052109     1.007825032230
         H            6.563740453142    -3.747097256274    -0.015691947891     1.007825032230
         H            6.089480453142    -4.662043256274     1.401752052109     1.007825032230

  Charge       = 0
  Multiplicity = 1
  Basis Set: 6-311++G**
    Blend: 6-311++G**
  Basis Set: (6-311++G** AUX)
    Blend: AUG-CC-PVTZ-JKFIT

    Orbital Energies [Eh]
    ---------------------

    Doubly Occupied:

       1A    -20.527685     2A    -15.604449     3A    -15.603867
       4A    -15.581764     5A    -15.572259     6A    -15.569456
       7A    -15.566525     8A    -15.551852     9A    -11.374400
      10A    -11.366015    11A    -11.333916    12A    -11.312479
      13A    -11.309408    14A    -11.306360    15A    -11.304635
      16A    -11.303501    17A    -11.303243    18A    -11.297284
      19A    -11.296722    20A    -11.293101    21A    -11.286512
      22A    -11.277511    23A    -11.276044    24A    -11.262538
      25A    -11.258935    26A    -11.253888    27A    -11.252588
      28A    -11.252352    29A    -11.251131    30A    -11.248180
      31A    -11.247804    32A    -11.247720    33A    -11.243255
      34A    -11.240372    35A    -11.234590    36A    -11.232348
      37A    -11.225370    38A     -1.390249    39A     -1.344480
      40A     -1.274242    41A     -1.253470    42A     -1.242580
      43A     -1.242138    44A     -1.208479    45A     -1.196533
      46A     -1.163027    47A     -1.140503    48A     -1.113604
      49A     -1.074075    50A     -1.060703    51A     -1.046182
      52A     -1.037846    53A     -1.025584    54A     -1.008436
      55A     -0.988724    56A     -0.975244    57A     -0.947105
      58A     -0.925864    59A     -0.924353    60A     -0.900319
      61A     -0.870409    62A     -0.866039    63A     -0.855938
      64A     -0.842597    65A     -0.834514    66A     -0.825114
      67A     -0.822515    68A     -0.804694    69A     -0.779829
      70A     -0.753376    71A     -0.736874    72A     -0.731739
      73A     -0.720464    74A     -0.699712    75A     -0.692728
      76A     -0.681965    77A     -0.672804    78A     -0.664398
      79A     -0.660405    80A     -0.655802    81A     -0.652283
      82A     -0.643024    83A     -0.640487    84A     -0.628917
      85A     -0.621267    86A     -0.619276    87A     -0.613746
      88A     -0.606300    89A     -0.602110    90A     -0.601602
      91A     -0.597450    92A     -0.596247    93A     -0.590618
      94A     -0.586048    95A     -0.581325    96A     -0.579834
      97A     -0.579415    98A     -0.568454    99A     -0.565278
     100A     -0.558257   101A     -0.548847   102A     -0.541575
     103A     -0.528875   104A     -0.525798   105A     -0.523137
     106A     -0.519029   107A     -0.513774   108A     -0.512185
     109A     -0.506064   110A     -0.503617   111A     -0.501658
     112A     -0.495565   113A     -0.484809   114A     -0.481450
     115A     -0.452968   116A     -0.450468   117A     -0.437515
     118A     -0.434203   119A     -0.427552   120A     -0.425809
     121A     -0.413126   122A     -0.404356   123A     -0.397488
     124A     -0.378882   125A     -0.373178   126A     -0.344568
     127A     -0.344203   128A     -0.342727   129A     -0.315834
     130A     -0.310246   131A     -0.290270

  @DF-RHF Final Energy: -1572.35044853773252

   => Energetics <=

    Nuclear Repulsion Energy =           3648.9890400089889226
    One-Electron Energy =               -9396.5041268569402746
    Two-Electron Energy =                4175.1646383102188338
    Total Energy =                      -1572.3504485377325182

  Dipole Moment: [D]
     X:     3.4666      Y:     5.8729      Z:    -3.1889     Total:     7.5284

  Basis Set: (6-311++G** AUX)
    Blend: AUG-CC-PVTZ-RI
	 Reference Energy          =   -1572.3504485377325182 [Eh]
	 Singles Energy            =      -0.0000000000000000 [Eh]
	 Same-Spin Energy          =      -1.4696921559077400 [Eh]
	 Opposite-Spin Energy      =      -4.0476663893929103 [Eh]
	 Correlation Energy        =      -5.5173585453006506 [Eh]
	 Total Energy              =   -1577.8678070830330853 [Eh]

	 ================> DF-SCS-MP2 Energies <==================
	-----------------------------------------------------------
	 SCS Same-Spin Scale       =       0.3333333333333333 [-]
	 SCS Opposite-Spin Scale   =       1.2000000000000000 [-]
	 SCS Same-Spin Energy      =      -0.4898973853025800 [Eh]
	 SCS Opposite-Spin Energy  =      -4.8571996672714919 [Eh]
	 SCS Correlation Energy    =      -5.3470970525740720 [Eh]
	 SCS Total Energy          =   -1577.6975455903066177 [Eh]
	-----------------------------------------------------------

*** Psi4 exiting successfully. Buy a developer a beer!
