                               Psi4 1.3.2 release

  ==> Input File <==

--------------------------------------------------------------------------
molecule {
0 1
 C   -6.237497   -4.395561    0.929819
 C   -5.634346   -3.581503   -0.037357
 C   -5.403976   -2.217630    0.232852
 C   -5.814264   -1.762140    1.510015
 N   -6.392647   -2.527085    2.445869
 C   -6.596775   -3.819763    2.152693
 C   -4.758977   -1.268802   -0.745894
 C   -4.300581   -1.626939   -2.026985
 C   -3.722997   -0.601914   -2.785621
 N   -3.589056    0.652764   -2.365251
 C   -4.066679    0.901248   -1.131639
 N   -4.631762    0.005070   -0.325755
 N   -3.939266    2.192510   -0.709293
 C   -2.784317    2.986746   -0.414029
 C   -2.953074    4.352301   -0.033475
 C   -1.792960    5.084296    0.262888
 C   -0.500614    4.552679    0.202801
 C   -0.345535    3.214066   -0.176305
 C   -1.488702    2.454841   -0.483283
 N    0.912766    2.536248   -0.297990
 C    2.188968    2.924012    0.045645
 C    3.322202    1.958299   -0.246225
 C    3.330137    1.068117   -1.332994
 C    4.403787    0.194786   -1.524769
 C    5.513286    0.189475   -0.658088
 C    5.506728    1.110248    0.407454
 C    4.442440    1.993880    0.601101
 C    6.668252   -0.796638   -0.846686
 N    6.597852   -2.130997   -0.227524
 C    5.661870   -3.133708   -0.784886
 C    4.274195   -3.171699   -0.093858
 N    4.339125   -3.326119    1.379658
 C    4.518355   -4.690043    1.891331
 C    5.245708   -2.288534    1.929831
 C    6.638384   -2.237914    1.248936
 O    2.429642    3.993973    0.582201
 C   -4.309698    5.029086    0.071008
 H   -6.424414   -5.448867    0.742852
 H   -5.355239   -4.030267   -0.987538
 H   -5.663710   -0.723112    1.789481
 H   -7.068090   -4.409055    2.937770
 H   -4.366827   -2.623384   -2.445395
 H   -3.334305   -0.776447   -3.788319
 H   -4.848256    2.624468   -0.638674
 H   -1.885430    6.128116    0.560244
 H    0.365876    5.154222    0.447008
 H   -1.385006    1.422564   -0.787836
 H    0.830870    1.571754   -0.586509
 H    2.494847    1.066365   -2.028691
 H    4.369307   -0.500020   -2.363740
 H    6.342513    1.135121    1.106079
 H    4.457388    2.708142    1.420811
 H    6.812667   -0.955384   -1.924924
 H    7.585904   -0.323445   -0.469135
 H    5.550424   -2.988913   -1.956422
 H    6.285424   -4.454608   -0.592594
 H    3.553378   -4.165016   -0.596173
 H    3.632794   -2.078441   -0.334507
 H    5.494283   -5.093341    1.598272
 H    3.732266   -5.346801    1.500943
 H    4.447438   -4.696464    2.985230
 H    5.374381   -2.471021    3.181569
 H    4.594891   -1.042974    1.755642
 H    7.334633   -3.504434    1.570948
 H    7.296640   -1.374165    1.704900
 H   -4.972714    4.538852    0.798165
 H   -4.826131    5.025120   -0.893049
 H   -4.236801    6.074778    0.380845
}
memory 20GB
set_num_threads(6)
psi4_io.set_default_path("/scratch/bdw2292")
set freeze_core True
E, wfn = energy('mp2/6-311++G**',return_wfn=True)
oeprop(wfn,"WIBERG_LOWDIN_INDICES")
clean()
--------------------------------------------------------------------------

    Molecular point group: c1

    Geometry (in Angstrom), charge = 0, multiplicity = 1:

       Center              X                  Y                   Z               Mass
    ------------   -----------------  -----------------  -----------------  -----------------
         C           -6.224342654198    -4.470277449064     0.950095286761    12.000000000000
         C           -5.621191654198    -3.656219449064    -0.017080713239    12.000000000000
         C           -5.390821654198    -2.292346449064     0.253128286761    12.000000000000
         C           -5.801109654198    -1.836856449064     1.530291286761    12.000000000000
         N           -6.379492654198    -2.601801449064     2.466145286761    14.003074004430
         C           -6.583620654198    -3.894479449064     2.172969286761    12.000000000000
         C           -4.745822654198    -1.343518449064    -0.725617713239    12.000000000000
         C           -4.287426654198    -1.701655449064    -2.006708713239    12.000000000000
         C           -3.709842654198    -0.676630449064    -2.765344713239    12.000000000000
         N           -3.575901654198     0.578047550936    -2.344974713239    14.003074004430
         C           -4.053524654198     0.826531550936    -1.111362713239    12.000000000000
         N           -4.618607654198    -0.069646449064    -0.305478713239    14.003074004430
         N           -3.926111654198     2.117793550936    -0.689016713239    14.003074004430
         C           -2.771162654198     2.912029550936    -0.393752713239    12.000000000000
         C           -2.939919654198     4.277584550936    -0.013198713239    12.000000000000
         C           -1.779805654198     5.009579550936     0.283164286761    12.000000000000
         C           -0.487459654198     4.477962550936     0.223077286761    12.000000000000
         C           -0.332380654198     3.139349550936    -0.156028713239    12.000000000000
         C           -1.475547654198     2.380124550936    -0.463006713239    12.000000000000
         N            0.925920345802     2.461531550936    -0.277713713239    14.003074004430
         C            2.202122345802     2.849295550936     0.065921286761    12.000000000000
         C            3.335356345802     1.883582550936    -0.225948713239    12.000000000000
         C            3.343291345802     0.993400550936    -1.312717713239    12.000000000000
         C            4.416941345802     0.120069550936    -1.504492713239    12.000000000000
         C            5.526440345802     0.114758550936    -0.637811713239    12.000000000000
         C            5.519882345802     1.035531550936     0.427730286761    12.000000000000
         C            4.455594345802     1.919163550936     0.621377286761    12.000000000000
         C            6.681406345802    -0.871354449064    -0.826409713239    12.000000000000
         N            6.611006345802    -2.205713449064    -0.207247713239    14.003074004430
         C            5.675024345802    -3.208424449064    -0.764609713239    12.000000000000
         C            4.287349345802    -3.246415449064    -0.073581713239    12.000000000000
         N            4.352279345802    -3.400835449064     1.399934286761    14.003074004430
         C            4.531509345802    -4.764759449064     1.911607286761    12.000000000000
         C            5.258862345802    -2.363250449064     1.950107286761    12.000000000000
         C            6.651538345802    -2.312630449064     1.269212286761    12.000000000000
         O            2.442796345802     3.919256550936     0.602477286761    15.994914619570
         C           -4.296543654198     4.954369550936     0.091284286761    12.000000000000
         H           -6.411259654198    -5.523583449064     0.763128286761     1.007825032230
         H           -5.342084654198    -4.104983449064    -0.967261713239     1.007825032230
         H           -5.650555654198    -0.797828449064     1.809757286761     1.007825032230
         H           -7.054935654198    -4.483771449064     2.958046286761     1.007825032230
         H           -4.353672654198    -2.698100449064    -2.425118713239     1.007825032230
         H           -3.321150654198    -0.851163449064    -3.768042713239     1.007825032230
         H           -4.835101654198     2.549751550936    -0.618397713239     1.007825032230
         H           -1.872275654198     6.053399550936     0.580520286761     1.007825032230
         H            0.379030345802     5.079505550936     0.467284286761     1.007825032230
         H           -1.371851654198     1.347847550936    -0.767559713239     1.007825032230
         H            0.844024345802     1.497037550936    -0.566232713239     1.007825032230
         H            2.508001345802     0.991648550936    -2.008414713239     1.007825032230
         H            4.382461345802    -0.574736449064    -2.343463713239     1.007825032230
         H            6.355667345802     1.060404550936     1.126355286761     1.007825032230
         H            4.470542345802     2.633425550936     1.441087286761     1.007825032230
         H            6.825821345802    -1.030100449064    -1.904647713239     1.007825032230
         H            7.599058345802    -0.398161449064    -0.448858713239     1.007825032230
         H            5.563578345802    -3.063629449064    -1.936145713239     1.007825032230
         H            6.298578345802    -4.529324449064    -0.572317713239     1.007825032230
         H            3.566532345802    -4.239732449064    -0.575896713239     1.007825032230
         H            3.645948345802    -2.153157449064    -0.314230713239     1.007825032230
         H            5.507437345802    -5.168057449064     1.618548286761     1.007825032230
         H            3.745420345802    -5.421517449064     1.521219286761     1.007825032230
         H            4.460592345802    -4.771180449064     3.005506286761     1.007825032230
         H            5.387535345802    -2.545737449064     3.201845286761     1.007825032230
         H            4.608045345802    -1.117690449064     1.775918286761     1.007825032230
         H            7.347787345802    -3.579150449064     1.591224286761     1.007825032230
         H            7.309794345802    -1.448881449064     1.725176286761     1.007825032230
         H           -4.959559654198     4.464135550936     0.818441286761     1.007825032230
         H           -4.812976654198     4.950403550936    -0.872772713239     1.007825032230
         H           -4.223646654198     6.000061550936     0.401121286761     1.007825032230

  Charge       = 0
  Multiplicity = 1
  Basis Set: 6-311++G**
    Blend: 6-311++G**
  Basis Set: (6-311++G** AUX)
    Blend: AUG-CC-PVTZ-JKFIT

    Orbital Energies [Eh]
    ---------------------

    Doubly Occupied:

       1A    -20.523965     2A    -15.604740     3A    -15.579522
       4A    -15.577855     5A    -15.577259     6A    -15.576491
       7A    -15.571796     8A    -15.557166     9A    -11.367956
      10A    -11.364342    11A    -11.333361    12A    -11.312798
      13A    -11.312736    14A    -11.311104    15A    -11.309067
      16A    -11.304760    17A    -11.300954    18A    -11.293822
      19A    -11.293761    20A    -11.291524    21A    -11.284242
      22A    -11.281563    23A    -11.274479    24A    -11.263846
      25A    -11.262637    26A    -11.262512    27A    -11.262471
      28A    -11.259283    29A    -11.254704    30A    -11.253868
      31A    -11.250843    32A    -11.248632    33A    -11.239725
      34A    -11.236686    35A    -11.231648    36A    -11.230092
      37A    -11.218216    38A     -1.389607    39A     -1.347112
      40A     -1.269837    41A     -1.251027    42A     -1.247756
      43A     -1.239739    44A     -1.211917    45A     -1.201941
      46A     -1.167546    47A     -1.137978    48A     -1.110845
      49A     -1.073244    50A     -1.062705    51A     -1.043971
      52A     -1.036433    53A     -1.030158    54A     -1.004405
      55A     -0.994966    56A     -0.979854    57A     -0.945617
      58A     -0.929786    59A     -0.922560    60A     -0.901658
      61A     -0.868171    62A     -0.866126    63A     -0.854529
      64A     -0.847644    65A     -0.835227    66A     -0.829348
      67A     -0.822679    68A     -0.808201    69A     -0.778081
      70A     -0.752242    71A     -0.738725    72A     -0.732531
      73A     -0.717586    74A     -0.713620    75A     -0.702307
      76A     -0.680928    77A     -0.676038    78A     -0.666582
      79A     -0.662377    80A     -0.655505    81A     -0.650499
      82A     -0.645022    83A     -0.637433    84A     -0.636107
      85A     -0.622945    86A     -0.617495    87A     -0.608864
      88A     -0.608238    89A     -0.606159    90A     -0.601353
      91A     -0.597474    92A     -0.592908    93A     -0.587704
      94A     -0.586460    95A     -0.585279    96A     -0.580753
      97A     -0.578546    98A     -0.577050    99A     -0.567396
     100A     -0.548748   101A     -0.544812   102A     -0.539487
     103A     -0.533600   104A     -0.529634   105A     -0.527941
     106A     -0.521768   107A     -0.512597   108A     -0.509645
     109A     -0.507089   110A     -0.505385   111A     -0.503337
     112A     -0.499864   113A     -0.488987   114A     -0.469301
     115A     -0.458949   116A     -0.449365   117A     -0.439689
     118A     -0.435574   119A     -0.430206   120A     -0.417857
     121A     -0.415161   122A     -0.414034   123A     -0.399234
     124A     -0.385135   125A     -0.379484   126A     -0.351742
     127A     -0.347574   128A     -0.340827   129A     -0.317361
     130A     -0.314466   131A     -0.286349

  @DF-RHF Final Energy: -1572.35265292708164

   => Energetics <=

    Nuclear Repulsion Energy =           3571.2119701410369998
    One-Electron Energy =               -9240.7244111654472363
    Two-Electron Energy =                4097.1597880973286010
    Total Energy =                      -1572.3526529270811807

  Dipole Moment: [D]
     X:    -1.4631      Y:    -5.8265      Z:    -3.5930     Total:     6.9998

  Basis Set: (6-311++G** AUX)
    Blend: AUG-CC-PVTZ-RI
	 Reference Energy          =   -1572.3526529270816354 [Eh]
	 Singles Energy            =      -0.0000000000000000 [Eh]
	 Same-Spin Energy          =      -1.4686505413850701 [Eh]
	 Opposite-Spin Energy      =      -4.0438618246076814 [Eh]
	 Correlation Energy        =      -5.5125123659927517 [Eh]
	 Total Energy              =   -1577.8651652930743694 [Eh]

	 ================> DF-SCS-MP2 Energies <==================
	-----------------------------------------------------------
	 SCS Same-Spin Scale       =       0.3333333333333333 [-]
	 SCS Opposite-Spin Scale   =       1.2000000000000000 [-]
	 SCS Same-Spin Energy      =      -0.4895501804616900 [Eh]
	 SCS Opposite-Spin Energy  =      -4.8526341895292173 [Eh]
	 SCS Correlation Energy    =      -5.3421843699909077 [Eh]
	 SCS Total Energy          =   -1577.6948372970725814 [Eh]
	-----------------------------------------------------------

*** Psi4 exiting successfully. Buy a developer a beer!
