                               Psi4 1.3.2 release

  ==> Input File <==

--------------------------------------------------------------------------
molecule {
0 1
 C    0.961908    4.806094   -1.322482
 C    2.257420    4.561358   -0.845901
 C    2.681466    3.238819   -0.608689
 C    1.733573    2.228002   -0.905848
 N    0.493530    2.438714   -1.365011
 C    0.121527    3.712679   -1.562093
 C    4.050610    2.879251   -0.085249
 C    5.103413    3.776898    0.152372
 C    6.293903    3.204766    0.616148
 N    6.465961    1.906242    0.849484
 C    5.393509    1.120968    0.616731
 N    4.218708    1.566883    0.164190
 N    5.565048   -0.229688    0.881188
 C    4.734568   -1.385999    0.648528
 C    5.330636   -2.681369    0.582427
 C    4.474968   -3.767884    0.332688
 C    3.092393   -3.647771    0.147477
 C    2.520015   -2.374458    0.236277
 C    3.348186   -1.269559    0.488986
 N    1.131223   -2.060615    0.071752
 C    0.073237   -2.827901   -0.355493
 C   -1.253985   -2.142606   -0.627619
 C   -1.379321   -0.797819   -1.017097
 C   -2.639278   -0.238683   -1.243358
 C   -3.819863   -0.993169   -1.097488
 C   -3.677108   -2.345311   -0.729677
 C   -2.421726   -2.914340   -0.503575
 C   -5.197109   -0.372822   -1.358320
 N   -6.360208   -0.630758   -0.485865
 C   -7.531614    0.257693   -0.633360
 C   -7.494127    1.506336    0.283468
 N   -7.275006    1.197487    1.717190
 C   -8.471349    0.851844    2.494894
 C   -6.119784    0.278108    1.854252
 C   -6.157944   -0.974028    0.941233
 O    0.172719   -4.036783   -0.501467
 C    6.821288   -2.925558    0.742677
 H    0.610953    5.817767   -1.503517
 H    2.905001    5.412871   -0.652359
 H    2.004734    1.184372   -0.788795
 H   -0.890908    3.859753   -1.934866
 H    5.043227    4.843641   -0.025275
 H    7.164128    3.831428    0.809380
 H    6.517178   -0.400648    1.168739
 H    4.895720   -4.770296    0.263130
 H    2.471007   -4.511211   -0.056717
 H    2.915653   -0.284867    0.562928
 H    0.902493   -1.092776    0.248392
 H   -0.489964   -0.185573   -1.150984
 H   -2.691095    0.807820   -1.543772
 H   -4.557668   -2.980777   -0.637634
 H   -2.326523   -3.962173   -0.229629
 H   -5.039940    0.713376   -1.427276
 H   -5.525747   -0.723665   -2.348907
 H   -7.653672    0.675503   -1.981421
 H   -8.774691   -0.527902   -0.274674
 H   -8.359712    2.112685    0.173958
 H   -6.281380    2.339019   -0.180392
 H   -8.909182   -0.089958    2.144339
 H   -9.222405    1.644909    2.404384
 H   -8.216776    0.751266    3.556104
 H   -6.027338   -0.141715    3.196723
 H   -4.851360    1.061737    1.489843
 H   -7.405069   -1.797781    1.407343
 H   -5.437643   -1.524326    1.050827
 H    7.164789   -2.655766    1.751224
 H    7.406311   -2.333137    0.024935
 H    7.103177   -3.975884    0.585071
}
memory 20GB
set_num_threads(6)
psi4_io.set_default_path("/scratch/bdw2292")
set freeze_core True
E, wfn = energy('mp2/6-311++G**',return_wfn=True)
oeprop(wfn,"WIBERG_LOWDIN_INDICES")
clean()
--------------------------------------------------------------------------

    Molecular point group: c1

    Geometry (in Angstrom), charge = 0, multiplicity = 1:

       Center              X                  Y                   Z               Mass
    ------------   -----------------  -----------------  -----------------  -----------------
         C            0.860206866095     4.793190059574    -1.303622650373    12.000000000000
         C            2.155718866095     4.548454059574    -0.827041650373    12.000000000000
         C            2.579764866095     3.225915059574    -0.589829650373    12.000000000000
         C            1.631871866095     2.215098059574    -0.886988650373    12.000000000000
         N            0.391828866095     2.425810059574    -1.346151650373    14.003074004430
         C            0.019825866095     3.699775059574    -1.543233650373    12.000000000000
         C            3.948908866095     2.866347059574    -0.066389650373    12.000000000000
         C            5.001711866095     3.763994059574     0.171231349627    12.000000000000
         C            6.192201866095     3.191862059574     0.635007349627    12.000000000000
         N            6.364259866095     1.893338059574     0.868343349627    14.003074004430
         C            5.291807866095     1.108064059574     0.635590349627    12.000000000000
         N            4.117006866095     1.553979059574     0.183049349627    14.003074004430
         N            5.463346866095    -0.242591940426     0.900047349627    14.003074004430
         C            4.632866866095    -1.398902940426     0.667387349627    12.000000000000
         C            5.228934866095    -2.694272940426     0.601286349627    12.000000000000
         C            4.373266866095    -3.780787940426     0.351547349627    12.000000000000
         C            2.990691866095    -3.660674940426     0.166336349627    12.000000000000
         C            2.418313866095    -2.387361940426     0.255136349627    12.000000000000
         C            3.246484866095    -1.282462940426     0.507845349627    12.000000000000
         N            1.029521866095    -2.073518940426     0.090611349627    14.003074004430
         C           -0.028464133905    -2.840804940426    -0.336633650373    12.000000000000
         C           -1.355686133905    -2.155509940426    -0.608759650373    12.000000000000
         C           -1.481022133905    -0.810722940426    -0.998237650373    12.000000000000
         C           -2.740979133905    -0.251586940426    -1.224498650373    12.000000000000
         C           -3.921564133905    -1.006072940426    -1.078628650373    12.000000000000
         C           -3.778809133905    -2.358214940426    -0.710817650373    12.000000000000
         C           -2.523427133905    -2.927243940426    -0.484715650373    12.000000000000
         C           -5.298810133905    -0.385725940426    -1.339460650373    12.000000000000
         N           -6.461909133905    -0.643661940426    -0.467005650373    14.003074004430
         C           -7.633315133905     0.244789059574    -0.614500650373    12.000000000000
         C           -7.595828133905     1.493432059574     0.302327349627    12.000000000000
         N           -7.376707133905     1.184583059574     1.736049349627    14.003074004430
         C           -8.573050133905     0.838940059574     2.513753349627    12.000000000000
         C           -6.221485133905     0.265204059574     1.873111349627    12.000000000000
         C           -6.259645133905    -0.986931940426     0.960092349627    12.000000000000
         O            0.071017866095    -4.049686940426    -0.482607650373    15.994914619570
         C            6.719586866095    -2.938461940426     0.761536349627    12.000000000000
         H            0.509251866095     5.804863059574    -1.484657650373     1.007825032230
         H            2.803299866095     5.399967059574    -0.633499650373     1.007825032230
         H            1.903032866095     1.171468059574    -0.769935650373     1.007825032230
         H           -0.992609133905     3.846849059574    -1.916006650373     1.007825032230
         H            4.941525866095     4.830737059574    -0.006415650373     1.007825032230
         H            7.062426866095     3.818524059574     0.828239349627     1.007825032230
         H            6.415476866095    -0.413551940426     1.187598349627     1.007825032230
         H            4.794018866095    -4.783199940426     0.281989349627     1.007825032230
         H            2.369305866095    -4.524114940426    -0.037857650373     1.007825032230
         H            2.813951866095    -0.297770940426     0.581787349627     1.007825032230
         H            0.800791866095    -1.105679940426     0.267251349627     1.007825032230
         H           -0.591665133905    -0.198476940426    -1.132124650373     1.007825032230
         H           -2.792796133905     0.794916059574    -1.524912650373     1.007825032230
         H           -4.659369133905    -2.993680940426    -0.618774650373     1.007825032230
         H           -2.428224133905    -3.975076940426    -0.210769650373     1.007825032230
         H           -5.141641133905     0.700472059574    -1.408416650373     1.007825032230
         H           -5.627448133905    -0.736568940426    -2.330047650373     1.007825032230
         H           -7.755373133905     0.662599059574    -1.962561650373     1.007825032230
         H           -8.876392133905    -0.540805940426    -0.255814650373     1.007825032230
         H           -8.461413133905     2.099781059574     0.192817349627     1.007825032230
         H           -6.383081133905     2.326115059574    -0.161532650373     1.007825032230
         H           -9.010883133905    -0.102861940426     2.163198349627     1.007825032230
         H           -9.324106133905     1.632005059574     2.423243349627     1.007825032230
         H           -8.318477133905     0.738362059574     3.574963349627     1.007825032230
         H           -6.129039133905    -0.154618940426     3.215582349627     1.007825032230
         H           -4.953061133905     1.048833059574     1.508702349627     1.007825032230
         H           -7.506770133905    -1.810684940426     1.426202349627     1.007825032230
         H           -5.539344133905    -1.537229940426     1.069686349627     1.007825032230
         H            7.063087866095    -2.668669940426     1.770083349627     1.007825032230
         H            7.304609866095    -2.346040940426     0.043794349627     1.007825032230
         H            7.001475866095    -3.988787940426     0.603930349627     1.007825032230

  Charge       = 0
  Multiplicity = 1
  Basis Set: 6-311++G**
    Blend: 6-311++G**
  Basis Set: (6-311++G** AUX)
    Blend: AUG-CC-PVTZ-JKFIT

    Orbital Energies [Eh]
    ---------------------

    Doubly Occupied:

       1A    -20.519367     2A    -15.603381     3A    -15.601469
       4A    -15.587300     5A    -15.574270     6A    -15.570745
       7A    -15.569177     8A    -15.568462     9A    -11.375063
      10A    -11.363559    11A    -11.338822    12A    -11.334200
      13A    -11.332856    14A    -11.314223    15A    -11.308192
      16A    -11.301229    17A    -11.300625    18A    -11.300412
      19A    -11.292790    20A    -11.292007    21A    -11.289302
      22A    -11.280230    23A    -11.276877    24A    -11.265953
      25A    -11.265448    26A    -11.256239    27A    -11.256084
      28A    -11.253474    29A    -11.252463    30A    -11.248420
      31A    -11.247169    32A    -11.247030    33A    -11.243520
      34A    -11.239444    35A    -11.235217    36A    -11.231060
      37A    -11.224796    38A     -1.385812    39A     -1.344458
      40A     -1.278650    41A     -1.251556    42A     -1.250165
      43A     -1.240802    44A     -1.209700    45A     -1.206632
      46A     -1.161639    47A     -1.139386    48A     -1.115623
      49A     -1.075149    50A     -1.059928    51A     -1.048437
      52A     -1.038174    53A     -1.022397    54A     -1.009986
      55A     -1.007517    56A     -0.979426    57A     -0.947357
      58A     -0.930352    59A     -0.926385    60A     -0.900685
      61A     -0.878868    62A     -0.872498    63A     -0.858089
      64A     -0.850394    65A     -0.842141    66A     -0.828039
      67A     -0.820212    68A     -0.806843    69A     -0.777697
      70A     -0.753858    71A     -0.739683    72A     -0.730836
      73A     -0.721764    74A     -0.707025    75A     -0.697477
      76A     -0.683724    77A     -0.681571    78A     -0.668641
      79A     -0.658258    80A     -0.652771    81A     -0.651599
      82A     -0.645616    83A     -0.634822    84A     -0.629958
      85A     -0.627883    86A     -0.621891    87A     -0.619480
      88A     -0.611601    89A     -0.607267    90A     -0.604782
      91A     -0.602244    92A     -0.600810    93A     -0.596118
      94A     -0.591193    95A     -0.587438    96A     -0.584395
      97A     -0.580335    98A     -0.575142    99A     -0.561430
     100A     -0.560554   101A     -0.550890   102A     -0.547299
     103A     -0.544149   104A     -0.523333   105A     -0.519592
     106A     -0.513774   107A     -0.509845   108A     -0.508477
     109A     -0.502679   110A     -0.498448   111A     -0.494374
     112A     -0.489641   113A     -0.484735   114A     -0.478515
     115A     -0.471381   116A     -0.451994   117A     -0.443096
     118A     -0.427361   119A     -0.425229   120A     -0.422986
     121A     -0.414502   122A     -0.400184   123A     -0.387307
     124A     -0.385415   125A     -0.373182   126A     -0.346046
     127A     -0.343838   128A     -0.338810   129A     -0.319411
     130A     -0.314217   131A     -0.290530

  @DF-RHF Final Energy: -1572.22441018451673

   => Energetics <=

    Nuclear Repulsion Energy =           3638.9294790732674301
    One-Electron Energy =               -9375.6332309190820524
    Two-Electron Energy =                4164.4793416612974397
    Total Energy =                      -1572.2244101845171826

  Dipole Moment: [D]
     X:     1.0076      Y:     6.9675      Z:     0.1471     Total:     7.0415

  Basis Set: (6-311++G** AUX)
    Blend: AUG-CC-PVTZ-RI
	 Reference Energy          =   -1572.2244101845167279 [Eh]
	 Singles Energy            =      -0.0000000000000000 [Eh]
	 Same-Spin Energy          =      -1.4689621142024178 [Eh]
	 Opposite-Spin Energy      =      -4.0492956198315273 [Eh]
	 Correlation Energy        =      -5.5182577340339449 [Eh]
	 Total Energy              =   -1577.7426679185507510 [Eh]

	 ================> DF-SCS-MP2 Energies <==================
	-----------------------------------------------------------
	 SCS Same-Spin Scale       =       0.3333333333333333 [-]
	 SCS Opposite-Spin Scale   =       1.2000000000000000 [-]
	 SCS Same-Spin Energy      =      -0.4896540380674726 [Eh]
	 SCS Opposite-Spin Energy  =      -4.8591547437978324 [Eh]
	 SCS Correlation Energy    =      -5.3488087818653050 [Eh]
	 SCS Total Energy          =   -1577.5732189663820009 [Eh]
	-----------------------------------------------------------

*** Psi4 exiting successfully. Buy a developer a beer!
