                               Psi4 1.3.2 release

  ==> Input File <==

--------------------------------------------------------------------------
molecule {
0 1
 C    0.228331    4.536694   -0.916516
 C    1.576017    4.445761   -0.540908
 C    2.188208    3.182697   -0.418993
 C    1.365440    2.070107   -0.724649
 N    0.079386    2.134483   -1.090697
 C   -0.473898    3.353826   -1.176087
 C    3.626102    2.984745   -0.006016
 C    4.566557    4.002239    0.219266
 C    5.851759    3.571579    0.569507
 N    6.208487    2.297544    0.711217
 C    5.233923    1.388372    0.499906
 N    3.981888    1.695871    0.151683
 N    5.597707    0.060224    0.669069
 C    4.906865   -1.183064    0.425386
 C    5.655668   -2.385236    0.246750
 C    4.929074   -3.560617   -0.010810
 C    3.532645   -3.613419   -0.098297
 C    2.811813   -2.432050    0.103604
 C    3.509218   -1.241906    0.364326
 N    1.387832   -2.292574    0.050071
 C    0.398625   -3.173554   -0.319359
 C   -1.014277   -2.636180   -0.460438
 C   -1.309592   -1.305470   -0.804154
 C   -2.634018   -0.871878   -0.888189
 C   -3.711779   -1.744502   -0.645879
 C   -3.403183   -3.084672   -0.341579
 C   -2.080830   -3.527737   -0.255110
 C   -5.158774   -1.253941   -0.747259
 N   -5.445413    0.082641   -0.189433
 C   -5.533813    0.202814    1.279373
 C   -6.964705   -0.003164    1.836376
 N   -7.987986    0.860745    1.198080
 C   -8.116558    2.219721    1.741343
 C   -7.884147    0.754119   -0.278710
 C   -6.452789    0.946323   -0.842412
 O    0.625155   -4.358461   -0.513239
 C    7.172740   -2.440316    0.296827
 H   -0.267303    5.498941   -1.004323
 H    2.116146    5.365595   -0.330643
 H    1.781015    1.068626   -0.696669
 H   -1.521590    3.380305   -1.471791
 H    4.355392    5.059109    0.111181
 H    6.643952    4.298603    0.746208
 H    6.582064    0.002456    0.883618
 H    5.467661   -4.494584   -0.166997
 H    3.011414   -4.538579   -0.311219
 H    2.961222   -0.327064    0.523915
 H    1.057363   -1.364835    0.274515
 H   -0.503742   -0.602390   -1.003532
 H   -2.822105    0.169382   -1.147924
 H   -4.203576   -3.803391   -0.166815
 H   -1.853255   -4.563415   -0.015303
 H   -5.459681   -1.199268   -1.803158
 H   -5.796984   -2.021990   -0.288820
 H   -4.649316   -0.753772    1.902388
 H   -5.086218    1.554974    1.665058
 H   -7.008567    0.103278    2.881476
 H   -7.345484   -1.466101    1.501992
 H   -7.207144    2.803741    1.557769
 H   -8.297854    2.179494    2.821479
 H   -8.966204    2.733787    1.277738
 H   -8.615906    1.462421   -0.756360
 H   -8.302549   -0.698595   -0.663081
 H   -6.070286    2.429202   -0.542276
 H   -6.414096    0.829519   -1.908670
 H    7.548474   -2.194699    1.300199
 H    7.626355   -1.730424   -0.409079
 H    7.573834   -3.431364    0.043206
}
memory 20GB
set_num_threads(6)
psi4_io.set_default_path("/scratch/bdw2292")
set freeze_core True
E, wfn = energy('mp2/6-311++G**',return_wfn=True)
oeprop(wfn,"WIBERG_LOWDIN_INDICES")
clean()
--------------------------------------------------------------------------

    Molecular point group: c1

    Geometry (in Angstrom), charge = 0, multiplicity = 1:

       Center              X                  Y                   Z               Mass
    ------------   -----------------  -----------------  -----------------  -----------------
         C            0.120305676543     4.548338634461    -0.906226312791    12.000000000000
         C            1.467991676543     4.457405634461    -0.530618312791    12.000000000000
         C            2.080182676543     3.194341634461    -0.408703312791    12.000000000000
         C            1.257414676543     2.081751634461    -0.714359312791    12.000000000000
         N           -0.028639323457     2.146127634461    -1.080407312791    14.003074004430
         C           -0.581923323457     3.365470634461    -1.165797312791    12.000000000000
         C            3.518076676543     2.996389634461     0.004273687209    12.000000000000
         C            4.458531676543     4.013883634461     0.229555687209    12.000000000000
         C            5.743733676543     3.583223634461     0.579796687209    12.000000000000
         N            6.100461676543     2.309188634461     0.721506687209    14.003074004430
         C            5.125897676543     1.400016634461     0.510195687209    12.000000000000
         N            3.873862676543     1.707515634461     0.161972687209    14.003074004430
         N            5.489681676543     0.071868634461     0.679358687209    14.003074004430
         C            4.798839676543    -1.171419365539     0.435675687209    12.000000000000
         C            5.547642676543    -2.373591365539     0.257039687209    12.000000000000
         C            4.821048676543    -3.548972365539    -0.000520312791    12.000000000000
         C            3.424619676543    -3.601774365539    -0.088007312791    12.000000000000
         C            2.703787676543    -2.420405365539     0.113893687209    12.000000000000
         C            3.401192676543    -1.230261365539     0.374615687209    12.000000000000
         N            1.279806676543    -2.280929365539     0.060360687209    14.003074004430
         C            0.290599676543    -3.161909365539    -0.309069312791    12.000000000000
         C           -1.122302323457    -2.624535365539    -0.450148312791    12.000000000000
         C           -1.417617323457    -1.293825365539    -0.793864312791    12.000000000000
         C           -2.742043323457    -0.860233365539    -0.877899312791    12.000000000000
         C           -3.819804323457    -1.732857365539    -0.635589312791    12.000000000000
         C           -3.511208323457    -3.073027365539    -0.331289312791    12.000000000000
         C           -2.188855323457    -3.516092365539    -0.244820312791    12.000000000000
         C           -5.266799323457    -1.242296365539    -0.736969312791    12.000000000000
         N           -5.553438323457     0.094285634461    -0.179143312791    14.003074004430
         C           -5.641838323457     0.214458634461     1.289662687209    12.000000000000
         C           -7.072730323457     0.008480634461     1.846665687209    12.000000000000
         N           -8.096011323457     0.872389634461     1.208369687209    14.003074004430
         C           -8.224583323457     2.231365634461     1.751632687209    12.000000000000
         C           -7.992172323457     0.765763634461    -0.268420312791    12.000000000000
         C           -6.560814323457     0.957967634461    -0.832122312791    12.000000000000
         O            0.517129676543    -4.346816365539    -0.502949312791    15.994914619570
         C            7.064714676543    -2.428671365539     0.307116687209    12.000000000000
         H           -0.375328323457     5.510585634461    -0.994033312791     1.007825032230
         H            2.008120676543     5.377239634461    -0.320353312791     1.007825032230
         H            1.672989676543     1.080270634461    -0.686379312791     1.007825032230
         H           -1.629615323457     3.391949634461    -1.461501312791     1.007825032230
         H            4.247366676543     5.070753634461     0.121470687209     1.007825032230
         H            6.535926676543     4.310247634461     0.756497687209     1.007825032230
         H            6.474038676543     0.014100634461     0.893907687209     1.007825032230
         H            5.359635676543    -4.482939365539    -0.156707312791     1.007825032230
         H            2.903388676543    -4.526934365539    -0.300929312791     1.007825032230
         H            2.853196676543    -0.315419365539     0.534204687209     1.007825032230
         H            0.949337676543    -1.353190365539     0.284804687209     1.007825032230
         H           -0.611767323457    -0.590745365539    -0.993242312791     1.007825032230
         H           -2.930130323457     0.181026634461    -1.137634312791     1.007825032230
         H           -4.311601323457    -3.791746365539    -0.156525312791     1.007825032230
         H           -1.961280323457    -4.551770365539    -0.005013312791     1.007825032230
         H           -5.567706323457    -1.187623365539    -1.792868312791     1.007825032230
         H           -5.905009323457    -2.010345365539    -0.278530312791     1.007825032230
         H           -4.757341323457    -0.742127365539     1.912677687209     1.007825032230
         H           -5.194243323457     1.566618634461     1.675347687209     1.007825032230
         H           -7.116592323457     0.114922634461     2.891765687209     1.007825032230
         H           -7.453509323457    -1.454456365539     1.512281687209     1.007825032230
         H           -7.315169323457     2.815385634461     1.568058687209     1.007825032230
         H           -8.405879323457     2.191138634461     2.831768687209     1.007825032230
         H           -9.074229323457     2.745431634461     1.288027687209     1.007825032230
         H           -8.723931323457     1.474065634461    -0.746070312791     1.007825032230
         H           -8.410574323457    -0.686950365539    -0.652791312791     1.007825032230
         H           -6.178311323457     2.440846634461    -0.531986312791     1.007825032230
         H           -6.522121323457     0.841163634461    -1.898380312791     1.007825032230
         H            7.440448676543    -2.183054365539     1.310488687209     1.007825032230
         H            7.518329676543    -1.718779365539    -0.398789312791     1.007825032230
         H            7.465808676543    -3.419719365539     0.053495687209     1.007825032230

  Charge       = 0
  Multiplicity = 1
  Basis Set: 6-311++G**
    Blend: 6-311++G**
  Basis Set: (6-311++G** AUX)
    Blend: AUG-CC-PVTZ-JKFIT

    Orbital Energies [Eh]
    ---------------------

    Doubly Occupied:

       1A    -20.516495     2A    -15.602184     3A    -15.598532
       4A    -15.584759     5A    -15.573120     6A    -15.572333
       7A    -15.569377     8A    -15.567055     9A    -11.373882
      10A    -11.360205    11A    -11.333823    12A    -11.332859
      13A    -11.316164    14A    -11.314665    15A    -11.313114
      16A    -11.304358    17A    -11.299216    18A    -11.298972
      19A    -11.298316    20A    -11.290883    21A    -11.287570
      22A    -11.278352    23A    -11.278034    24A    -11.263580
      25A    -11.260348    26A    -11.255821    27A    -11.251281
      28A    -11.250904    29A    -11.246398    30A    -11.245465
      31A    -11.244182    32A    -11.241141    33A    -11.238125
      34A    -11.236460    35A    -11.233966    36A    -11.229170
      37A    -11.223098    38A     -1.382352    39A     -1.343138
      40A     -1.276473    41A     -1.252700    42A     -1.248333
      43A     -1.239104    44A     -1.208395    45A     -1.207849
      46A     -1.156071    47A     -1.137557    48A     -1.113831
      49A     -1.073531    50A     -1.056547    51A     -1.046592
      52A     -1.035946    53A     -1.016145    54A     -1.007609
      55A     -1.006057    56A     -0.978350    57A     -0.947059
      58A     -0.930287    59A     -0.924823    60A     -0.899121
      61A     -0.870725    62A     -0.865982    63A     -0.856466
      64A     -0.853505    65A     -0.836371    66A     -0.832372
      67A     -0.824538    68A     -0.803144    69A     -0.774944
      70A     -0.751821    71A     -0.736861    72A     -0.728018
      73A     -0.719661    74A     -0.708365    75A     -0.693690
      76A     -0.681170    77A     -0.675096    78A     -0.666830
      79A     -0.658792    80A     -0.653972    81A     -0.650032
      82A     -0.645582    83A     -0.635262    84A     -0.630481
      85A     -0.624713    86A     -0.619074    87A     -0.618154
      88A     -0.610287    89A     -0.605466    90A     -0.602877
      91A     -0.600234    92A     -0.597059    93A     -0.593232
      94A     -0.588280    95A     -0.586785    96A     -0.582831
      97A     -0.578785    98A     -0.575474    99A     -0.560929
     100A     -0.559379   101A     -0.546611   102A     -0.543469
     103A     -0.542363   104A     -0.542159   105A     -0.522973
     106A     -0.520768   107A     -0.512079   108A     -0.507429
     109A     -0.505885   110A     -0.494683   111A     -0.494130
     112A     -0.488844   113A     -0.483137   114A     -0.476841
     115A     -0.470474   116A     -0.450507   117A     -0.440654
     118A     -0.428822   119A     -0.424194   120A     -0.422747
     121A     -0.412989   122A     -0.398323   123A     -0.389312
     124A     -0.388459   125A     -0.371667   126A     -0.344360
     127A     -0.339401   128A     -0.332432   129A     -0.322129
     130A     -0.312346   131A     -0.288782

  @DF-RHF Final Energy: -1572.29649086077393

   => Energetics <=

    Nuclear Repulsion Energy =           3648.9476914303841113
    One-Electron Energy =               -9396.1917942192412738
    Two-Electron Energy =                4174.9476119280834610
    Total Energy =                      -1572.2964908607737016

  Dipole Moment: [D]
     X:    -0.3704      Y:     7.8343      Z:     0.4247     Total:     7.8545

  Basis Set: (6-311++G** AUX)
    Blend: AUG-CC-PVTZ-RI
	 Reference Energy          =   -1572.2964908607739289 [Eh]
	 Singles Energy            =      -0.0000000000000000 [Eh]
	 Same-Spin Energy          =      -1.4679370656323436 [Eh]
	 Opposite-Spin Energy      =      -4.0459703748940132 [Eh]
	 Correlation Energy        =      -5.5139074405263564 [Eh]
	 Total Energy              =   -1577.8103983013002107 [Eh]

	 ================> DF-SCS-MP2 Energies <==================
	-----------------------------------------------------------
	 SCS Same-Spin Scale       =       0.3333333333333333 [-]
	 SCS Opposite-Spin Scale   =       1.2000000000000000 [-]
	 SCS Same-Spin Energy      =      -0.4893123552107812 [Eh]
	 SCS Opposite-Spin Energy  =      -4.8551644498728157 [Eh]
	 SCS Correlation Energy    =      -5.3444768050835965 [Eh]
	 SCS Total Energy          =   -1577.6409676658574881 [Eh]
	-----------------------------------------------------------

*** Psi4 exiting successfully. Buy a developer a beer!
