                               Psi4 1.3.2 release

  ==> Input File <==

--------------------------------------------------------------------------
molecule {
0 1
 C   -0.507248    4.506176    0.163202
 C    0.894091    4.482599    0.157263
 C    1.581817    3.251472    0.150531
 C    0.762765    2.095754    0.152158
 N   -0.576575    2.096389    0.157990
 C   -1.193472    3.287324    0.163934
 C    3.088699    3.140682    0.139755
 C    3.972547    4.232632    0.146641
 C    5.333773    3.914921    0.130949
 N    5.814491    2.676539    0.106969
 C    4.897167    1.685874    0.096398
 N    3.573322    1.880786    0.116133
 N    5.437722    0.405747    0.071497
 C    4.886726   -0.926304    0.019556
 C    5.771015   -2.047800   -0.020973
 C    5.188665   -3.325400   -0.081965
 C    3.808161   -3.554154   -0.099677
 C    2.955581   -2.447135   -0.048498
 C    3.506822   -1.156013    0.000840
 N    1.526903   -2.488818   -0.060886
 C    0.640268   -3.540295   -0.090924
 C   -0.829598   -3.176820   -0.177538
 C   -1.293596   -2.066113   -0.901524
 C   -2.641434   -1.707591   -0.861659
 C   -3.576545   -2.442954   -0.108421
 C   -3.103591   -3.577223    0.580808
 C   -1.755899   -3.945663    0.545350
 C   -5.041211   -2.007139    0.005645
 N   -5.357751   -0.588225   -0.228146
 C   -6.726684   -0.264158   -0.675354
 C   -6.956780    1.226433   -1.027616
 N   -6.536524    2.174428    0.031471
 C   -7.494686    2.398781    1.121615
 C   -5.145080    1.861402    0.432116
 C   -4.911680    0.376308    0.801025
 O    0.992091   -4.707064   -0.018903
 C    7.284988   -1.923317   -0.005284
 H   -1.055080    5.443960    0.167419
 H    1.419929    5.433966    0.153979
 H    1.216203    1.112346    0.153100
 H   -2.281878    3.261588    0.170193
 H    3.660377    5.269548    0.164024
 H    6.082900    4.706085    0.137172
 H    6.444325    0.473013    0.066649
 H    5.832929   -4.203050   -0.117663
 H    3.398439   -4.555946   -0.145268
 H    2.857259   -0.297177    0.028172
 H    1.091319   -1.580960    0.018548
 H   -0.590884   -1.463932   -1.472493
 H   -2.954979   -0.822142   -1.413594
 H   -3.790842   -4.172419    1.181819
 H   -1.394534   -4.803536    1.107152
 H   -5.577772   -2.627561   -0.727191
 H   -5.404051   -2.257678    1.013890
 H   -7.044480   -1.059515   -1.917076
 H   -7.691076   -0.640892    0.414285
 H   -7.906109    1.429582   -1.324753
 H   -5.991663    1.495613   -2.281491
 H   -7.641237    1.484746    1.708778
 H   -8.461712    2.716880    0.715677
 H   -7.131339    3.190836    1.786329
 H   -4.828538    2.516880    1.166719
 H   -4.233077    2.100121   -0.866399
 H   -5.635344    0.092371    2.081511
 H   -3.407102    0.219533    1.028497
 H    7.635016   -1.398191    0.894648
 H    7.650215   -1.364012   -0.878166
 H    7.796274   -2.895760   -0.018239
}
memory 20GB
set_num_threads(6)
psi4_io.set_default_path("/scratch/bdw2292")
set freeze_core True
E, wfn = energy('mp2/6-311++G**',return_wfn=True)
oeprop(wfn,"WIBERG_LOWDIN_INDICES")
clean()
--------------------------------------------------------------------------

    Molecular point group: c1

    Geometry (in Angstrom), charge = 0, multiplicity = 1:

       Center              X                  Y                   Z               Mass
    ------------   -----------------  -----------------  -----------------  -----------------
         C           -0.654708419686     4.510209231505     0.134923653367    12.000000000000
         C            0.746630580314     4.486632231505     0.128984653367    12.000000000000
         C            1.434356580314     3.255505231505     0.122252653367    12.000000000000
         C            0.615304580314     2.099787231505     0.123879653367    12.000000000000
         N           -0.724035419686     2.100422231505     0.129711653367    14.003074004430
         C           -1.340932419686     3.291357231505     0.135655653367    12.000000000000
         C            2.941238580314     3.144715231505     0.111476653367    12.000000000000
         C            3.825086580314     4.236665231505     0.118362653367    12.000000000000
         C            5.186312580314     3.918954231505     0.102670653367    12.000000000000
         N            5.667030580314     2.680572231505     0.078690653367    14.003074004430
         C            4.749706580314     1.689907231505     0.068119653367    12.000000000000
         N            3.425861580314     1.884819231505     0.087854653367    14.003074004430
         N            5.290261580314     0.409780231505     0.043218653367    14.003074004430
         C            4.739265580314    -0.922270768495    -0.008722346633    12.000000000000
         C            5.623554580314    -2.043766768495    -0.049251346633    12.000000000000
         C            5.041204580314    -3.321366768495    -0.110243346633    12.000000000000
         C            3.660700580314    -3.550120768495    -0.127955346633    12.000000000000
         C            2.808120580314    -2.443101768495    -0.076776346633    12.000000000000
         C            3.359361580314    -1.151979768495    -0.027438346633    12.000000000000
         N            1.379442580314    -2.484784768495    -0.089164346633    14.003074004430
         C            0.492807580314    -3.536261768495    -0.119202346633    12.000000000000
         C           -0.977058419686    -3.172786768495    -0.205816346633    12.000000000000
         C           -1.441056419686    -2.062079768495    -0.929802346633    12.000000000000
         C           -2.788894419686    -1.703557768495    -0.889937346633    12.000000000000
         C           -3.724005419686    -2.438920768495    -0.136699346633    12.000000000000
         C           -3.251051419686    -3.573189768495     0.552529653367    12.000000000000
         C           -1.903359419686    -3.941629768495     0.517071653367    12.000000000000
         C           -5.188671419686    -2.003105768495    -0.022633346633    12.000000000000
         N           -5.505211419686    -0.584191768495    -0.256424346633    14.003074004430
         C           -6.874144419686    -0.260124768495    -0.703632346633    12.000000000000
         C           -7.104240419686     1.230466231505    -1.055894346633    12.000000000000
         N           -6.683984419686     2.178461231505     0.003192653367    14.003074004430
         C           -7.642146419686     2.402814231505     1.093336653367    12.000000000000
         C           -5.292540419686     1.865435231505     0.403837653367    12.000000000000
         C           -5.059140419686     0.380341231505     0.772746653367    12.000000000000
         O            0.844630580314    -4.703030768495    -0.047181346633    15.994914619570
         C            7.137527580314    -1.919283768495    -0.033562346633    12.000000000000
         H           -1.202540419686     5.447993231505     0.139140653367     1.007825032230
         H            1.272468580314     5.437999231505     0.125700653367     1.007825032230
         H            1.068742580314     1.116379231505     0.124821653367     1.007825032230
         H           -2.429338419686     3.265621231505     0.141914653367     1.007825032230
         H            3.512916580314     5.273581231505     0.135745653367     1.007825032230
         H            5.935439580314     4.710118231505     0.108893653367     1.007825032230
         H            6.296864580314     0.477046231505     0.038370653367     1.007825032230
         H            5.685468580314    -4.199016768495    -0.145941346633     1.007825032230
         H            3.250978580314    -4.551912768495    -0.173546346633     1.007825032230
         H            2.709798580314    -0.293143768495    -0.000106346633     1.007825032230
         H            0.943858580314    -1.576926768495    -0.009730346633     1.007825032230
         H           -0.738344419686    -1.459898768495    -1.500771346633     1.007825032230
         H           -3.102439419686    -0.818108768495    -1.441872346633     1.007825032230
         H           -3.938302419686    -4.168385768495     1.153540653367     1.007825032230
         H           -1.541994419686    -4.799502768495     1.078873653367     1.007825032230
         H           -5.725232419686    -2.623527768495    -0.755469346633     1.007825032230
         H           -5.551511419686    -2.253644768495     0.985611653367     1.007825032230
         H           -7.191940419686    -1.055481768495    -1.945354346633     1.007825032230
         H           -7.838536419686    -0.636858768495     0.386006653367     1.007825032230
         H           -8.053569419686     1.433615231505    -1.353031346633     1.007825032230
         H           -6.139123419686     1.499646231505    -2.309769346633     1.007825032230
         H           -7.788697419686     1.488779231505     1.680499653367     1.007825032230
         H           -8.609172419686     2.720913231505     0.687398653367     1.007825032230
         H           -7.278799419686     3.194869231505     1.758050653367     1.007825032230
         H           -4.975998419686     2.520913231505     1.138440653367     1.007825032230
         H           -4.380537419686     2.104154231505    -0.894677346633     1.007825032230
         H           -5.782804419686     0.096404231505     2.053232653367     1.007825032230
         H           -3.554562419686     0.223566231505     1.000218653367     1.007825032230
         H            7.487555580314    -1.394157768495     0.866369653367     1.007825032230
         H            7.502754580314    -1.359978768495    -0.906444346633     1.007825032230
         H            7.648813580314    -2.891726768495    -0.046517346633     1.007825032230

  Charge       = 0
  Multiplicity = 1
  Basis Set: 6-311++G**
    Blend: 6-311++G**
  Basis Set: (6-311++G** AUX)
    Blend: AUG-CC-PVTZ-JKFIT

    Orbital Energies [Eh]
    ---------------------

    Doubly Occupied:

       1A    -20.519127     2A    -15.602756     3A    -15.599469
       4A    -15.590725     5A    -15.582139     6A    -15.576194
       7A    -15.572384     8A    -15.569792     9A    -11.375192
      10A    -11.361403    11A    -11.352749    12A    -11.346787
      13A    -11.333690    14A    -11.314889    15A    -11.312234
      16A    -11.312043    17A    -11.300733    18A    -11.297512
      19A    -11.295436    20A    -11.291021    21A    -11.285934
      22A    -11.279643    23A    -11.277465    24A    -11.265742
      25A    -11.261225    26A    -11.260715    27A    -11.252572
      28A    -11.250512    29A    -11.250025    30A    -11.247671
      31A    -11.245002    32A    -11.243925    33A    -11.239277
      34A    -11.238342    35A    -11.233977    36A    -11.228320
      37A    -11.222297    38A     -1.383904    39A     -1.342212
      40A     -1.273950    41A     -1.260117    42A     -1.249771
      43A     -1.239562    44A     -1.218010    45A     -1.207588
      46A     -1.159574    47A     -1.137781    48A     -1.112577
      49A     -1.073019    50A     -1.059538    51A     -1.045645
      52A     -1.036513    53A     -1.019742    54A     -1.009862
      55A     -1.006327    56A     -0.987679    57A     -0.949219
      58A     -0.931550    59A     -0.923367    60A     -0.899038
      61A     -0.869654    62A     -0.867499    63A     -0.854869
      64A     -0.846122    65A     -0.841421    66A     -0.834691
      67A     -0.824596    68A     -0.804550    69A     -0.775763
      70A     -0.751394    71A     -0.736024    72A     -0.729435
      73A     -0.722899    74A     -0.718392    75A     -0.694620
      76A     -0.681196    77A     -0.670875    78A     -0.664495
      79A     -0.657146    80A     -0.653759    81A     -0.650043
      82A     -0.648836    83A     -0.639539    84A     -0.633220
      85A     -0.626132    86A     -0.617616    87A     -0.616554
      88A     -0.610591    89A     -0.607318    90A     -0.602241
      91A     -0.599438    92A     -0.596227    93A     -0.590494
      94A     -0.589228    95A     -0.584862    96A     -0.580666
      97A     -0.576926    98A     -0.575006    99A     -0.560179
     100A     -0.557681   101A     -0.548372   102A     -0.546391
     103A     -0.544826   104A     -0.540792   105A     -0.523913
     106A     -0.521557   107A     -0.512889   108A     -0.509267
     109A     -0.508014   110A     -0.506520   111A     -0.497156
     112A     -0.493459   113A     -0.482675   114A     -0.477921
     115A     -0.450025   116A     -0.442499   117A     -0.440997
     118A     -0.436220   119A     -0.425052   120A     -0.422867
     121A     -0.412918   122A     -0.396911   123A     -0.384435
     124A     -0.372100   125A     -0.365067   126A     -0.343778
     127A     -0.342606   128A     -0.340340   129A     -0.332530
     130A     -0.312317   131A     -0.287016

  @DF-RHF Final Energy: -1572.20948370661972

   => Energetics <=

    Nuclear Repulsion Energy =           3683.9035096251441246
    One-Electron Energy =               -9465.6278037284719176
    Two-Electron Energy =                4209.5148103967076167
    Total Energy =                      -1572.2094837066197215

  Dipole Moment: [D]
     X:    -1.8476      Y:     7.0190      Z:     1.2850     Total:     7.3710

  Basis Set: (6-311++G** AUX)
    Blend: AUG-CC-PVTZ-RI
	 Reference Energy          =   -1572.2094837066197215 [Eh]
	 Singles Energy            =      -0.0000000000000000 [Eh]
	 Same-Spin Energy          =      -1.4712714409861274 [Eh]
	 Opposite-Spin Energy      =      -4.0562143191556519 [Eh]
	 Correlation Energy        =      -5.5274857601417793 [Eh]
	 Total Energy              =   -1577.7369694667615931 [Eh]

	 ================> DF-SCS-MP2 Energies <==================
	-----------------------------------------------------------
	 SCS Same-Spin Scale       =       0.3333333333333333 [-]
	 SCS Opposite-Spin Scale   =       1.2000000000000000 [-]
	 SCS Same-Spin Energy      =      -0.4904238136620425 [Eh]
	 SCS Opposite-Spin Energy  =      -4.8674571829867821 [Eh]
	 SCS Correlation Energy    =      -5.3578809966488246 [Eh]
	 SCS Total Energy          =   -1577.5673647032685949 [Eh]
	-----------------------------------------------------------

*** Psi4 exiting successfully. Buy a developer a beer!
