                               Psi4 1.3.2 release

  ==> Input File <==

--------------------------------------------------------------------------
molecule {
0 1
 C   -1.880656    5.116362   -0.822322
 C   -3.169472    4.568624   -0.767835
 C   -3.340343    3.208054   -0.447035
 C   -2.154986    2.487876   -0.158073
 N   -0.915598    2.993555   -0.200544
 C   -0.789912    4.287227   -0.535693
 C   -4.680325    2.518060   -0.398270
 C   -5.929939    3.153565   -0.483036
 C   -7.047581    2.314144   -0.394887
 N   -6.985311    0.991198   -0.254480
 C   -5.745453    0.464209   -0.200252
 N   -4.622911    1.180950   -0.265373
 N   -5.682414   -0.912150   -0.071964
 C   -4.589122   -1.835011    0.115871
 C   -4.852377   -3.151668    0.601983
 C   -3.748956   -4.000655    0.792890
 C   -2.423064   -3.630299    0.538830
 C   -2.177499   -2.346753    0.039596
 C   -3.263558   -1.482518   -0.170911
 N   -0.888884   -1.801371   -0.273204
 C    0.383283   -2.272907   -0.042786
 C    1.548670   -1.344443   -0.336972
 C    1.475731    0.058304   -0.284885
 C    2.595404    0.839165   -0.583253
 C    3.842794    0.260887   -0.893447
 C    3.891581   -1.143676   -0.963699
 C    2.779680   -1.935206   -0.666866
 C    5.057021    1.147921   -1.187090
 N    6.343942    1.009862   -0.481510
 C    7.223694   -0.162300   -0.701920
 C    7.096266   -1.314281    0.331898
 N    7.212213   -0.866814    1.739790
 C    8.568432   -0.670113    2.265300
 C    6.244559    0.234980    1.963049
 C    6.383452    1.397709    0.948843
 O    0.591859   -3.405391    0.365618
 C   -6.247122   -3.654077    0.935646
 H   -1.724076    6.158950   -1.082719
 H   -4.017506    5.206724   -1.004355
 H   -2.205834    1.447889    0.148940
 H    0.230707    4.666142   -0.564108
 H   -6.068857    4.223038   -0.584420
 H   -8.063544    2.705954   -0.435432
 H   -6.617431   -1.283757    0.001426
 H   -3.915841   -5.008358    1.171563
 H   -1.599283   -4.309606    0.718274
 H   -3.079533   -0.502066   -0.577006
 H   -0.922725   -0.887702   -0.702384
 H    0.543352    0.545182   -0.007760
 H    2.488689    1.923487   -0.545418
 H    4.799393   -1.638414   -1.299008
 H    2.845912   -3.019792   -0.706943
 H    5.280546    1.034039   -2.257849
 H    4.756655    2.191515   -1.016642
 H    7.102743   -0.575373   -1.842471
 H    8.649495    0.358065   -0.588791
 H    8.084058   -2.250767    0.083573
 H    6.213226   -1.799071    0.243039
 H    9.074397    0.152193    1.747120
 H    9.159066   -1.584908    2.139529
 H    8.528549   -0.440928    3.336455
 H    6.325462    0.601359    3.029926
 H    4.834650   -0.374056    1.791669
 H    7.661648    2.058818    1.186994
 H    5.343748    2.373323    1.219254
 H   -6.917777   -3.654050    0.064679
 H   -6.715926   -3.032896    1.703768
 H   -6.245559   -4.676699    1.321553
}
memory 20GB
set_num_threads(6)
psi4_io.set_default_path("/scratch/bdw2292")
set freeze_core True
E, wfn = energy('mp2/6-311++G**',return_wfn=True)
oeprop(wfn,"WIBERG_LOWDIN_INDICES")
clean()
--------------------------------------------------------------------------

    Molecular point group: c1

    Geometry (in Angstrom), charge = 0, multiplicity = 1:

       Center              X                  Y                   Z               Mass
    ------------   -----------------  -----------------  -----------------  -----------------
         C           -1.711734629098     5.076132802828    -0.816701309516    12.000000000000
         C           -3.000550629098     4.528394802828    -0.762214309516    12.000000000000
         C           -3.171421629098     3.167824802828    -0.441414309516    12.000000000000
         C           -1.986064629098     2.447646802828    -0.152452309516    12.000000000000
         N           -0.746676629098     2.953325802828    -0.194923309516    14.003074004430
         C           -0.620990629098     4.246997802828    -0.530072309516    12.000000000000
         C           -4.511403629098     2.477830802828    -0.392649309516    12.000000000000
         C           -5.761017629098     3.113335802828    -0.477415309516    12.000000000000
         C           -6.878659629098     2.273914802828    -0.389266309516    12.000000000000
         N           -6.816389629098     0.950968802828    -0.248859309516    14.003074004430
         C           -5.576531629098     0.423979802828    -0.194631309516    12.000000000000
         N           -4.453989629098     1.140720802828    -0.259752309516    14.003074004430
         N           -5.513492629098    -0.952379197172    -0.066343309516    14.003074004430
         C           -4.420200629098    -1.875240197172     0.121491690484    12.000000000000
         C           -4.683455629098    -3.191897197172     0.607603690484    12.000000000000
         C           -3.580034629098    -4.040884197172     0.798510690484    12.000000000000
         C           -2.254142629098    -3.670528197172     0.544450690484    12.000000000000
         C           -2.008577629098    -2.386982197172     0.045216690484    12.000000000000
         C           -3.094636629098    -1.522747197172    -0.165290309516    12.000000000000
         N           -0.719962629098    -1.841600197172    -0.267583309516    14.003074004430
         C            0.552204370902    -2.313136197172    -0.037165309516    12.000000000000
         C            1.717591370902    -1.384672197172    -0.331351309516    12.000000000000
         C            1.644652370902     0.018074802828    -0.279264309516    12.000000000000
         C            2.764325370902     0.798935802828    -0.577632309516    12.000000000000
         C            4.011715370902     0.220657802828    -0.887826309516    12.000000000000
         C            4.060502370902    -1.183905197172    -0.958078309516    12.000000000000
         C            2.948601370902    -1.975435197172    -0.661245309516    12.000000000000
         C            5.225942370902     1.107691802828    -1.181469309516    12.000000000000
         N            6.512863370902     0.969632802828    -0.475889309516    14.003074004430
         C            7.392615370902    -0.202529197172    -0.696299309516    12.000000000000
         C            7.265187370902    -1.354510197172     0.337518690484    12.000000000000
         N            7.381134370902    -0.907043197172     1.745410690484    14.003074004430
         C            8.737353370902    -0.710342197172     2.270920690484    12.000000000000
         C            6.413480370902     0.194750802828     1.968669690484    12.000000000000
         C            6.552373370902     1.357479802828     0.954463690484    12.000000000000
         O            0.760780370902    -3.445620197172     0.371238690484    15.994914619570
         C           -6.078200629098    -3.694306197172     0.941266690484    12.000000000000
         H           -1.555154629098     6.118720802828    -1.077098309516     1.007825032230
         H           -3.848584629098     5.166494802828    -0.998734309516     1.007825032230
         H           -2.036912629098     1.407659802828     0.154560690484     1.007825032230
         H            0.399628370902     4.625912802828    -0.558487309516     1.007825032230
         H           -5.899935629098     4.182808802828    -0.578799309516     1.007825032230
         H           -7.894622629098     2.665724802828    -0.429811309516     1.007825032230
         H           -6.448509629098    -1.323986197172     0.007046690484     1.007825032230
         H           -3.746919629098    -5.048587197172     1.177183690484     1.007825032230
         H           -1.430361629098    -4.349835197172     0.723894690484     1.007825032230
         H           -2.910611629098    -0.542295197172    -0.571385309516     1.007825032230
         H           -0.753803629098    -0.927931197172    -0.696763309516     1.007825032230
         H            0.712273370902     0.504952802828    -0.002139309516     1.007825032230
         H            2.657610370902     1.883257802828    -0.539797309516     1.007825032230
         H            4.968314370902    -1.678643197172    -1.293387309516     1.007825032230
         H            3.014833370902    -3.060021197172    -0.701322309516     1.007825032230
         H            5.449467370902     0.993809802828    -2.252228309516     1.007825032230
         H            4.925576370902     2.151285802828    -1.011021309516     1.007825032230
         H            7.271664370902    -0.615602197172    -1.836850309516     1.007825032230
         H            8.818416370902     0.317835802828    -0.583170309516     1.007825032230
         H            8.252979370902    -2.290996197172     0.089193690484     1.007825032230
         H            6.382147370902    -1.839300197172     0.248659690484     1.007825032230
         H            9.243318370902     0.111963802828     1.752740690484     1.007825032230
         H            9.327987370902    -1.625137197172     2.145149690484     1.007825032230
         H            8.697470370902    -0.481157197172     3.342075690484     1.007825032230
         H            6.494383370902     0.561129802828     3.035546690484     1.007825032230
         H            5.003571370902    -0.414285197172     1.797289690484     1.007825032230
         H            7.830569370902     2.018588802828     1.192614690484     1.007825032230
         H            5.512669370902     2.333093802828     1.224874690484     1.007825032230
         H           -6.748855629098    -3.694279197172     0.070299690484     1.007825032230
         H           -6.547004629098    -3.073125197172     1.709388690484     1.007825032230
         H           -6.076637629098    -4.716928197172     1.327173690484     1.007825032230

  Charge       = 0
  Multiplicity = 1
  Basis Set: 6-311++G**
    Blend: 6-311++G**
  Basis Set: (6-311++G** AUX)
    Blend: AUG-CC-PVTZ-JKFIT

    Orbital Energies [Eh]
    ---------------------

    Doubly Occupied:

       1A    -20.519396     2A    -15.603921     3A    -15.601111
       4A    -15.587567     5A    -15.574145     6A    -15.573759
       7A    -15.568263     8A    -15.554808     9A    -11.374369
      10A    -11.363549    11A    -11.334519    12A    -11.332546
      13A    -11.318331    14A    -11.314126    15A    -11.305717
      16A    -11.301877    17A    -11.301441    18A    -11.300848
      19A    -11.292582    20A    -11.289949    21A    -11.280758
      22A    -11.279784    23A    -11.278088    24A    -11.266389
      25A    -11.258513    26A    -11.255229    27A    -11.252849
      28A    -11.252743    29A    -11.247925    30A    -11.246976
      31A    -11.246214    32A    -11.244575    33A    -11.242605
      34A    -11.239252    35A    -11.233695    36A    -11.230837
      37A    -11.224373    38A     -1.385034    39A     -1.345396
      40A     -1.278955    41A     -1.249910    42A     -1.246155
      43A     -1.241103    44A     -1.209792    45A     -1.200985
      46A     -1.160273    47A     -1.139393    48A     -1.116409
      49A     -1.075458    50A     -1.058645    51A     -1.048543
      52A     -1.037575    53A     -1.021523    54A     -1.007490
      55A     -0.998472    56A     -0.977453    57A     -0.947891
      58A     -0.930192    59A     -0.926891    60A     -0.900917
      61A     -0.873053    62A     -0.864822    63A     -0.858321
      64A     -0.840522    65A     -0.835166    66A     -0.830213
      67A     -0.824963    68A     -0.806314    69A     -0.778214
      70A     -0.754696    71A     -0.739089    72A     -0.730716
      73A     -0.722430    74A     -0.717220    75A     -0.698579
      76A     -0.682666    77A     -0.670428    78A     -0.662196
      79A     -0.657442    80A     -0.654344    81A     -0.651510
      82A     -0.637063    83A     -0.634960    84A     -0.630551
      85A     -0.624125    86A     -0.619445    87A     -0.618152
      88A     -0.612457    89A     -0.606846    90A     -0.602809
      91A     -0.598585    92A     -0.595736    93A     -0.591390
      94A     -0.590630    95A     -0.584822    96A     -0.581221
      97A     -0.579720    98A     -0.576202    99A     -0.564862
     100A     -0.561930   101A     -0.548033   102A     -0.544887
     103A     -0.539832   104A     -0.525930   105A     -0.524701
     106A     -0.520765   107A     -0.513111   108A     -0.508537
     109A     -0.503526   110A     -0.498443   111A     -0.494361
     112A     -0.491658   113A     -0.484507   114A     -0.479594
     115A     -0.452014   116A     -0.450797   117A     -0.443293
     118A     -0.432827   119A     -0.427310   120A     -0.425192
     121A     -0.414321   122A     -0.405012   123A     -0.400687
     124A     -0.380085   125A     -0.373736   126A     -0.346554
     127A     -0.343487   128A     -0.339094   129A     -0.317078
     130A     -0.313295   131A     -0.289910

  @DF-RHF Final Energy: -1572.31287952576486

   => Energetics <=

    Nuclear Repulsion Energy =           3656.4013227239424850
    One-Electron Energy =               -9411.0382816330929927
    Two-Electron Energy =                4182.3240793833847420
    Total Energy =                      -1572.3128795257653110

  Dipole Moment: [D]
     X:    -3.0329      Y:     6.3736      Z:    -1.7571     Total:     7.2738

  Basis Set: (6-311++G** AUX)
    Blend: AUG-CC-PVTZ-RI
	 Reference Energy          =   -1572.3128795257648562 [Eh]
	 Singles Energy            =      -0.0000000000000000 [Eh]
	 Same-Spin Energy          =      -1.4698269938158641 [Eh]
	 Opposite-Spin Energy      =      -4.0475821642611738 [Eh]
	 Correlation Energy        =      -5.5174091580770384 [Eh]
	 Total Energy              =   -1577.8302886838418999 [Eh]

	 ================> DF-SCS-MP2 Energies <==================
	-----------------------------------------------------------
	 SCS Same-Spin Scale       =       0.3333333333333333 [-]
	 SCS Opposite-Spin Scale   =       1.2000000000000000 [-]
	 SCS Same-Spin Energy      =      -0.4899423312719547 [Eh]
	 SCS Opposite-Spin Energy  =      -4.8570985971134082 [Eh]
	 SCS Correlation Energy    =      -5.3470409283853630 [Eh]
	 SCS Total Energy          =   -1577.6599204541503241 [Eh]
	-----------------------------------------------------------

*** Psi4 exiting successfully. Buy a developer a beer!
