 Gaussian 09, Revision A.02,
 Gaussian 09:  EM64L-G09RevA.02 11-Jun-2009

 --------------------------------------------------
 #P opt=(,maxcycle=400) wB97XD/6-31G* MaxDisk=100GB
 --------------------------------------------------

 -----------------------------------------------------------------
 MOLECULE0 Rotatable Bond Optimization on g2-node38.bme.utexas.edu
 -----------------------------------------------------------------
 Symbolic Z-matrix:
 Charge =  0 Multiplicity = 1

 SCF Done:  E(RwB97XD) =  -1581.50375730     A.U. after   16 cycles
 SCF Done:  E(RwB97XD) =  -1581.56864324     A.U. after   13 cycles
 SCF Done:  E(RwB97XD) =  -1581.67291879     A.U. after   14 cycles
 SCF Done:  E(RwB97XD) =  -1581.72094206     A.U. after   14 cycles
 SCF Done:  E(RwB97XD) =  -1581.74600389     A.U. after   17 cycles
 SCF Done:  E(RwB97XD) =  -1581.75527181     A.U. after   16 cycles
 SCF Done:  E(RwB97XD) =  -1581.75541984     A.U. after   14 cycles
 SCF Done:  E(RwB97XD) =  -1581.75135385     A.U. after   16 cycles
 SCF Done:  E(RwB97XD) =  -1581.75809869     A.U. after   14 cycles
 SCF Done:  E(RwB97XD) =  -1581.75951103     A.U. after   14 cycles
 SCF Done:  E(RwB97XD) =  -1581.76132224     A.U. after   12 cycles
 SCF Done:  E(RwB97XD) =  -1581.76132027     A.U. after   10 cycles
 SCF Done:  E(RwB97XD) =  -1581.76132159     A.U. after    8 cycles
 SCF Done:  E(RwB97XD) =  -1581.76132286     A.U. after   10 cycles
 SCF Done:  E(RwB97XD) =  -1581.76132260     A.U. after   10 cycles
 SCF Done:  E(RwB97XD) =  -1581.76132296     A.U. after    7 cycles
 SCF Done:  E(RwB97XD) =  -1581.76132311     A.U. after    7 cycles
 SCF Done:  E(RwB97XD) =  -1581.76132323     A.U. after    7 cycles
 SCF Done:  E(RwB97XD) =  -1581.76132327     A.U. after    7 cycles
 SCF Done:  E(RwB97XD) =  -1581.76132325     A.U. after    6 cycles
 Optimization completed.
    -- Stationary point found.

                         Standard orientation:
 ---------------------------------------------------------------------
 Center     Atomic      Atomic             Coordinates (Angstroms)
 Number     Number       Type             X           Y           Z
 ---------------------------------------------------------------------
      1          6           0       -0.089564    4.464014   -1.499918
      2          6           0       -1.418981    4.254303   -1.155044
      3          6           0       -1.768891    3.082187   -0.485758
      4          6           0       -0.739852    2.177531   -0.193588
      5          7           0        0.535651    2.358133   -0.529222
      6          6           0        0.844928    3.486937   -1.173273
      7          6           0       -3.169367    2.753005   -0.118845
      8          6           0       -4.157681    3.711536    0.084613
      9          6           0       -5.425974    3.226509    0.401016
     10          7           0       -5.713912    1.938073    0.517393
     11          6           0       -4.681720    1.093066    0.315774
     12          7           0       -3.435119    1.449175    0.003562
     13          7           0       -5.002024   -0.230147    0.448704
     14          6           0       -4.213057   -1.388524    0.333512
     15          6           0       -4.826930   -2.635890    0.572563
     16          6           0       -4.038683   -3.777423    0.459160
     17          6           0       -2.683730   -3.745351    0.134675
     18          6           0       -2.100435   -2.502548   -0.091922
     19          6           0       -2.866339   -1.339934   -0.005417
     20          7           0       -0.746848   -2.291163   -0.405712
     21          6           0        0.272477   -3.192514   -0.563524
     22          6           0        1.594463   -2.537870   -0.855293
     23          6           0        2.754728   -3.187768   -0.434887
     24          6           0        3.994696   -2.585694   -0.608753
     25          6           0        4.108187   -1.329179   -1.208859
     26          6           0        2.948991   -0.717141   -1.685975
     27          6           0        1.705203   -1.306227   -1.507919
     28          6           0        5.450192   -0.619438   -1.297256
     29          7           0        5.793752    0.304424   -0.228937
     30          6           0        6.002848   -0.269363    1.095807
     31          6           0        4.749409   -0.242207    1.986197
     32          7           0        4.147022    1.084417    2.082586
     33          6           0        4.893603    2.007610    2.917759
     34          6           0        3.859816    1.594904    0.744111
     35          6           0        5.091429    1.583309   -0.178635
     36          8           0        0.148273   -4.400594   -0.446802
     37          6           0       -6.285425   -2.735820    0.941771
     38          1           0        0.216281    5.361940   -2.026114
     39          1           0       -2.176214    4.983435   -1.428499
     40          1           0       -0.971889    1.267002    0.351994
     41          1           0        1.892389    3.612556   -1.438985
     42          1           0       -3.963828    4.775206    0.024285
     43          1           0       -6.250709    3.915450    0.572423
     44          1           0       -5.974301   -0.361635    0.684354
     45          1           0       -4.503672   -4.743460    0.638844
     46          1           0       -2.095636   -4.649889    0.066297
     47          1           0       -2.413990   -0.381589   -0.208134
     48          1           0       -0.473117   -1.320354   -0.404846
     49          1           0        2.663637   -4.159878    0.038846
     50          1           0        4.890967   -3.091608   -0.256806
     51          1           0        3.015258    0.245194   -2.187459
     52          1           0        0.828276   -0.802439   -1.905308
     53          1           0        6.245379   -1.374453   -1.341813
     54          1           0        5.496432   -0.059224   -2.239335
     55          1           0        6.366936   -1.296842    0.982360
     56          1           0        6.807583    0.296463    1.588738
     57          1           0        4.998672   -0.591656    2.995650
     58          1           0        3.992052   -0.922755    1.579797
     59          1           0        5.906951    2.262797    2.559852
     60          1           0        4.996417    1.578387    3.920586
     61          1           0        4.330245    2.942779    3.009228
     62          1           0        3.468003    2.615530    0.833315
     63          1           0        3.057476    0.984544    0.316991
     64          1           0        5.807093    2.343105    0.170257
     65          1           0        4.805166    1.867453   -1.198326
     66          1           0       -6.940566   -2.331094    0.158724
     67          1           0       -6.511881   -2.202772    1.874861
     68          1           0       -6.571306   -3.779942    1.091491
 ---------------------------------------------------------------------

 The electronic state is 1-A.
 Alpha  occ. eigenvalues --  -19.23434 -14.49326 -14.48440 -14.46515 -14.46103
 Alpha  occ. eigenvalues --  -14.45826 -14.43397 -14.42642 -10.41800 -10.40195
 Alpha  occ. eigenvalues --  -10.37606 -10.36327 -10.35190 -10.35009 -10.34670
 Alpha  occ. eigenvalues --  -10.34056 -10.34003 -10.33565 -10.32779 -10.32327
 Alpha  occ. eigenvalues --  -10.31843 -10.31122 -10.31071 -10.31024 -10.30957
 Alpha  occ. eigenvalues --  -10.30790 -10.30405 -10.30358 -10.30329 -10.30275
 Alpha  occ. eigenvalues --  -10.30268 -10.30220 -10.30038 -10.29943 -10.29545
 Alpha  occ. eigenvalues --  -10.28641 -10.28330  -1.13538  -1.12294  -1.06207
 Alpha  occ. eigenvalues --   -1.04590  -1.03694  -1.03491  -1.00700  -0.99229
 Alpha  occ. eigenvalues --   -0.96197  -0.94684  -0.93047  -0.89747  -0.88145
 Alpha  occ. eigenvalues --   -0.87345  -0.86254  -0.85145  -0.84577  -0.83774
 Alpha  occ. eigenvalues --   -0.81691  -0.79507  -0.78208  -0.77654  -0.76306
 Alpha  occ. eigenvalues --   -0.73836  -0.72962  -0.72895  -0.72599  -0.70852
 Alpha  occ. eigenvalues --   -0.70437  -0.69536  -0.68001  -0.66455  -0.65190
 Alpha  occ. eigenvalues --   -0.63503  -0.63278  -0.62277  -0.61731  -0.60197
 Alpha  occ. eigenvalues --   -0.58836  -0.57912  -0.57465  -0.56521  -0.56122
 Alpha  occ. eigenvalues --   -0.55774  -0.55120  -0.55022  -0.54567  -0.54276
 Alpha  occ. eigenvalues --   -0.53616  -0.53137  -0.53004  -0.52292  -0.52079
 Alpha  occ. eigenvalues --   -0.51902  -0.51600  -0.51261  -0.50941  -0.50570
 Alpha  occ. eigenvalues --   -0.50463  -0.50374  -0.49940  -0.49429  -0.48337
 Alpha  occ. eigenvalues --   -0.47230  -0.46770  -0.46460  -0.46271  -0.46007
 Alpha  occ. eigenvalues --   -0.45755  -0.44879  -0.44512  -0.44004  -0.43898
 Alpha  occ. eigenvalues --   -0.43447  -0.43038  -0.42159  -0.41650  -0.41249
 Alpha  occ. eigenvalues --   -0.40582  -0.40462  -0.39845  -0.38173  -0.37562
 Alpha  occ. eigenvalues --   -0.35569  -0.35306  -0.33870  -0.33511  -0.33388
 Alpha  occ. eigenvalues --   -0.32998  -0.32023  -0.30471  -0.29141  -0.26990
 Alpha  occ. eigenvalues --   -0.24645
 Alpha virt. eigenvalues --   -0.00246   0.03015   0.03276   0.04464   0.06300
 Alpha virt. eigenvalues --    0.07286   0.08379   0.10605   0.14175   0.15009
 Alpha virt. eigenvalues --    0.15500   0.16433   0.17304   0.17630   0.18452

 Mulliken atomic charges:
              1
     1  C   -0.194971
     2  C   -0.155854
     3  C    0.036897
     4  C    0.009582
     5  N   -0.425794
     6  C    0.024679
     7  C    0.296082
     8  C   -0.256493
     9  C    0.049755
    10  N   -0.495254
    11  C    0.722271
    12  N   -0.570699
    13  N   -0.811451
    14  C    0.292553
    15  C    0.118342
    16  C   -0.240669
    17  C   -0.190499
    18  C    0.366836
    19  C   -0.276380
    20  N   -0.772229
    21  C    0.599113
    22  C    0.016496
    23  C   -0.178635
    24  C   -0.222667
    25  C    0.157667
    26  C   -0.213070
    27  C   -0.205520
    28  C   -0.263160
    29  N   -0.381563
    30  C   -0.186258
    31  C   -0.181481
    32  N   -0.384816
    33  C   -0.348644
    34  C   -0.181946
    35  C   -0.185579
    36  O   -0.517256
    37  C   -0.609298
    38  H    0.185660
    39  H    0.186011
    40  H    0.196485
    41  H    0.178712
    42  H    0.181202
    43  H    0.189590
    44  H    0.370263
    45  H    0.160387
    46  H    0.213836
    47  H    0.204590
    48  H    0.364205
    49  H    0.199009
    50  H    0.164970
    51  H    0.164492
    52  H    0.176073
    53  H    0.168929
    54  H    0.168252
    55  H    0.152495
    56  H    0.159125
    57  H    0.151978
    58  H    0.171198
    59  H    0.133114
    60  H    0.165885
    61  H    0.165339
    62  H    0.147195
    63  H    0.185514
    64  H    0.157094
    65  H    0.145848
    66  H    0.180434
    67  H    0.181108
    68  H    0.190927
 Sum of Mulliken atomic charges =   0.00000

 Dipole moment (field-independent basis, Debye):
    X=             -1.2727    Y=              6.3580    Z=             -0.7007  Tot=              6.5218
 Quadrupole moment (field-independent basis, Debye-Ang):
   XX=           -194.9420   YY=           -202.2135   ZZ=           -216.1965
   XY=             -5.6616   XZ=             -1.6415   YZ=            -12.1142

 Normal termination of Gaussian 09 at Tue Mar 10 13:58:09 2020.
