                               Psi4 1.3.2 release

  ==> Input File <==

--------------------------------------------------------------------------
molecule {
0 1
 C   -0.169989    4.498853   -1.231086
 C    1.165267    4.390312   -0.817567
 C    1.746989    3.119122   -0.639631
 C    0.907598    2.015524   -0.932811
 N   -0.366991    2.096122   -1.335941
 C   -0.891054    3.323647   -1.471423
 C    3.170720    2.907412   -0.183718
 C    4.119658    3.918308    0.036062
 C    5.389327    3.482292    0.431761
 N    5.724736    2.208757    0.619180
 C    4.744033    1.305730    0.408858
 N    3.504801    1.618231    0.018130
 N    5.092957   -0.020482    0.628549
 C    4.389109   -1.268331    0.454213
 C    5.118594   -2.495265    0.422110
 C    4.379814   -3.675679    0.227068
 C    2.988972   -3.711685    0.066015
 C    2.287131   -2.503778    0.123941
 C    2.996968   -1.308437    0.316828
 N    0.875024   -2.337087   -0.026817
 C   -0.116750   -3.213718   -0.398424
 C   -1.472861   -2.609892   -0.713358
 C   -1.619467   -1.358401   -1.335975
 C   -2.888071   -0.823251   -1.561017
 C   -4.052985   -1.514667   -1.181766
 C   -3.893414   -2.783279   -0.590594
 C   -2.627276   -3.333300   -0.373578
 C   -5.432287   -0.876059   -1.351152
 N   -5.910077    0.051568   -0.308241
 C   -5.335097    1.414831   -0.241906
 C   -4.149851    1.574901    0.744817
 N   -4.438612    1.102385    2.119047
 C   -5.157563    2.033873    2.996266
 C   -4.964765   -0.282772    2.051565
 C   -6.140265   -0.475206    1.057035
 O    0.057793   -4.420526   -0.458828
 C    6.629315   -2.572327    0.562231
 H   -0.640531    5.468696   -1.363502
 H    1.720554    5.304902   -0.624738
 H    1.299380    1.006990   -0.861166
 H   -1.929692    3.364203   -1.795767
 H    3.926629    4.974420   -0.106392
 H    6.186583    4.203986    0.607423
 H    6.068371   -0.077091    0.880666
 H    4.904987   -4.629115    0.182428
 H    2.457265   -4.641582   -0.095334
 H    2.461453   -0.374326    0.362988
 H    0.560332   -1.384729    0.095669
 H   -0.738718   -0.787975   -1.620729
 H   -2.958612    0.164940   -2.015087
 H   -4.768596   -3.350613   -0.274755
 H   -2.511175   -4.307564    0.094378
 H   -5.457009   -0.327930   -2.303968
 H   -6.174425   -1.684099   -1.427741
 H   -5.116427    1.772868   -1.198697
 H   -6.476732    2.355698    0.334080
 H   -3.820716    3.019792    0.804660
 H   -3.189011    1.001583    0.356313
 H   -6.173025    2.218675    2.628240
 H   -4.622644    2.988632    3.053714
 H   -5.219564    1.623868    4.010796
 H   -5.239799   -0.629786    3.084898
 H   -3.841556   -1.142569    1.579666
 H   -7.341194    0.344070    1.669651
 H   -6.472627   -1.558177    1.012093
 H    6.960290   -2.206401    1.544443
 H    7.135878   -1.967676   -0.203384
 H    7.017808   -3.595103    0.460753
}
memory 20GB
set_num_threads(6)
psi4_io.set_default_path("/scratch/bdw2292")
set freeze_core True
E, wfn = energy('mp2/6-311++G**',return_wfn=True)
oeprop(wfn,"WIBERG_LOWDIN_INDICES")
clean()
--------------------------------------------------------------------------

    Molecular point group: c1

    Geometry (in Angstrom), charge = 0, multiplicity = 1:

       Center              X                  Y                   Z               Mass
    ------------   -----------------  -----------------  -----------------  -----------------
         C           -0.261021575137     4.513589459237    -1.206959201765    12.000000000000
         C            1.074234424863     4.405048459237    -0.793440201765    12.000000000000
         C            1.655956424863     3.133858459237    -0.615504201765    12.000000000000
         C            0.816565424863     2.030260459237    -0.908684201765    12.000000000000
         N           -0.458023575137     2.110858459237    -1.311814201765    14.003074004430
         C           -0.982086575137     3.338383459237    -1.447296201765    12.000000000000
         C            3.079687424863     2.922148459237    -0.159591201765    12.000000000000
         C            4.028625424863     3.933044459237     0.060188798235    12.000000000000
         C            5.298294424863     3.497028459237     0.455887798235    12.000000000000
         N            5.633703424863     2.223493459237     0.643306798235    14.003074004430
         C            4.653000424863     1.320466459237     0.432984798235    12.000000000000
         N            3.413768424863     1.632967459237     0.042256798235    14.003074004430
         N            5.001924424863    -0.005745540763     0.652675798235    14.003074004430
         C            4.298076424863    -1.253594540763     0.478339798235    12.000000000000
         C            5.027561424863    -2.480528540763     0.446236798235    12.000000000000
         C            4.288781424863    -3.660942540763     0.251194798235    12.000000000000
         C            2.897939424863    -3.696948540763     0.090141798235    12.000000000000
         C            2.196098424863    -2.489041540763     0.148067798235    12.000000000000
         C            2.905935424863    -1.293700540763     0.340954798235    12.000000000000
         N            0.783991424863    -2.322350540763    -0.002690201765    14.003074004430
         C           -0.207782575137    -3.198981540763    -0.374297201765    12.000000000000
         C           -1.563893575137    -2.595155540763    -0.689231201765    12.000000000000
         C           -1.710499575137    -1.343664540763    -1.311848201765    12.000000000000
         C           -2.979103575137    -0.808514540763    -1.536890201765    12.000000000000
         C           -4.144017575137    -1.499930540763    -1.157639201765    12.000000000000
         C           -3.984446575137    -2.768542540763    -0.566467201765    12.000000000000
         C           -2.718308575137    -3.318563540763    -0.349451201765    12.000000000000
         C           -5.523319575137    -0.861322540763    -1.327025201765    12.000000000000
         N           -6.001109575137     0.066304459237    -0.284114201765    14.003074004430
         C           -5.426129575137     1.429567459237    -0.217779201765    12.000000000000
         C           -4.240883575137     1.589637459237     0.768943798235    12.000000000000
         N           -4.529644575137     1.117121459237     2.143173798235    14.003074004430
         C           -5.248595575137     2.048609459237     3.020392798235    12.000000000000
         C           -5.055797575137    -0.268035540763     2.075691798235    12.000000000000
         C           -6.231297575137    -0.460469540763     1.081161798235    12.000000000000
         O           -0.033239575137    -4.405789540763    -0.434701201765    15.994914619570
         C            6.538282424863    -2.557590540763     0.586357798235    12.000000000000
         H           -0.731563575137     5.483432459237    -1.339375201765     1.007825032230
         H            1.629521424863     5.319638459237    -0.600611201765     1.007825032230
         H            1.208347424863     1.021726459237    -0.837039201765     1.007825032230
         H           -2.020724575137     3.378939459237    -1.771640201765     1.007825032230
         H            3.835596424863     4.989156459237    -0.082265201765     1.007825032230
         H            6.095550424863     4.218722459237     0.631549798235     1.007825032230
         H            5.977338424863    -0.062354540763     0.904792798235     1.007825032230
         H            4.813954424863    -4.614378540763     0.206554798235     1.007825032230
         H            2.366232424863    -4.626845540763    -0.071207201765     1.007825032230
         H            2.370420424863    -0.359589540763     0.387114798235     1.007825032230
         H            0.469299424863    -1.369992540763     0.119795798235     1.007825032230
         H           -0.829750575137    -0.773238540763    -1.596602201765     1.007825032230
         H           -3.049644575137     0.179676459237    -1.990960201765     1.007825032230
         H           -4.859628575137    -3.335876540763    -0.250628201765     1.007825032230
         H           -2.602207575137    -4.292827540763     0.118504798235     1.007825032230
         H           -5.548041575137    -0.313193540763    -2.279841201765     1.007825032230
         H           -6.265457575137    -1.669362540763    -1.403614201765     1.007825032230
         H           -5.207459575137     1.787604459237    -1.174570201765     1.007825032230
         H           -6.567764575137     2.370434459237     0.358206798235     1.007825032230
         H           -3.911748575137     3.034528459237     0.828786798235     1.007825032230
         H           -3.280043575137     1.016319459237     0.380439798235     1.007825032230
         H           -6.264057575137     2.233411459237     2.652366798235     1.007825032230
         H           -4.713676575137     3.003368459237     3.077840798235     1.007825032230
         H           -5.310596575137     1.638604459237     4.034922798235     1.007825032230
         H           -5.330831575137    -0.615049540763     3.109024798235     1.007825032230
         H           -3.932588575137    -1.127832540763     1.603792798235     1.007825032230
         H           -7.432226575137     0.358806459237     1.693777798235     1.007825032230
         H           -6.563659575137    -1.543440540763     1.036219798235     1.007825032230
         H            6.869257424863    -2.191664540763     1.568569798235     1.007825032230
         H            7.044845424863    -1.952939540763    -0.179257201765     1.007825032230
         H            6.926775424863    -3.580366540763     0.484879798235     1.007825032230

  Charge       = 0
  Multiplicity = 1
  Basis Set: 6-311++G**
    Blend: 6-311++G**
  Basis Set: (6-311++G** AUX)
    Blend: AUG-CC-PVTZ-JKFIT

    Orbital Energies [Eh]
    ---------------------

    Doubly Occupied:

       1A    -20.522435     2A    -15.604430     3A    -15.601853
       4A    -15.587588     5A    -15.574808     6A    -15.574345
       7A    -15.569599     8A    -15.555605     9A    -11.376213
      10A    -11.364713    11A    -11.334955    12A    -11.314555
      13A    -11.313841    14A    -11.305916    15A    -11.304931
      16A    -11.301745    17A    -11.301701    18A    -11.301343
      19A    -11.301174    20A    -11.292997    21A    -11.289640
      22A    -11.281916    23A    -11.280799    24A    -11.265685
      25A    -11.258440    26A    -11.258233    27A    -11.254317
      28A    -11.252897    29A    -11.251402    30A    -11.247623
      31A    -11.247447    32A    -11.246658    33A    -11.244658
      34A    -11.240647    35A    -11.235680    36A    -11.230487
      37A    -11.225674    38A     -1.387097    39A     -1.344603
      40A     -1.278995    41A     -1.252290    42A     -1.247784
      43A     -1.241668    44A     -1.210087    45A     -1.201624
      46A     -1.163301    47A     -1.139963    48A     -1.116001
      49A     -1.075724    50A     -1.061003    51A     -1.048948
      52A     -1.038329    53A     -1.025287    54A     -1.008336
      55A     -1.002319    56A     -0.979416    57A     -0.947375
      58A     -0.928877    59A     -0.926735    60A     -0.901225
      61A     -0.873140    62A     -0.868063    63A     -0.858350
      64A     -0.849417    65A     -0.838405    66A     -0.836276
      67A     -0.826084    68A     -0.807177    69A     -0.778784
      70A     -0.754306    71A     -0.739974    72A     -0.731648
      73A     -0.722164    74A     -0.711030    75A     -0.699197
      76A     -0.683456    77A     -0.681006    78A     -0.668660
      79A     -0.660698    80A     -0.657738    81A     -0.652213
      82A     -0.649452    83A     -0.638014    84A     -0.630893
      85A     -0.624140    86A     -0.619308    87A     -0.613137
      88A     -0.609522    89A     -0.608552    90A     -0.604165
      91A     -0.602902    92A     -0.598654    93A     -0.596788
      94A     -0.591845    95A     -0.587809    96A     -0.581744
      97A     -0.580057    98A     -0.576382    99A     -0.567181
     100A     -0.561856   101A     -0.548137   102A     -0.544924
     103A     -0.541034   104A     -0.532481   105A     -0.527350
     106A     -0.524106   107A     -0.514864   108A     -0.509788
     109A     -0.509165   110A     -0.507198   111A     -0.496854
     112A     -0.494353   113A     -0.485138   114A     -0.481897
     115A     -0.458582   116A     -0.452265   117A     -0.443848
     118A     -0.429550   119A     -0.426722   120A     -0.421531
     121A     -0.415051   122A     -0.400657   123A     -0.394422
     124A     -0.380877   125A     -0.374024   126A     -0.347209
     127A     -0.346494   128A     -0.343441   129A     -0.315196
     130A     -0.311595   131A     -0.290715

  @DF-RHF Final Energy: -1572.32979787391514

   => Energetics <=

    Nuclear Repulsion Energy =           3794.9568714509250640
    One-Electron Energy =               -9687.8661668538461527
    Two-Electron Energy =                4320.5794975290054936
    Total Energy =                      -1572.3297978739155951

  Dipole Moment: [D]
     X:     1.1232      Y:     6.3206      Z:    -0.2945     Total:     6.4264

  Basis Set: (6-311++G** AUX)
    Blend: AUG-CC-PVTZ-RI
	 Reference Energy          =   -1572.3297978739151404 [Eh]
	 Singles Energy            =      -0.0000000000000000 [Eh]
	 Same-Spin Energy          =      -1.4721135530041809 [Eh]
	 Opposite-Spin Energy      =      -4.0497167890031465 [Eh]
	 Correlation Energy        =      -5.5218303420073269 [Eh]
	 Total Energy              =   -1577.8516282159225739 [Eh]

	 ================> DF-SCS-MP2 Energies <==================
	-----------------------------------------------------------
	 SCS Same-Spin Scale       =       0.3333333333333333 [-]
	 SCS Opposite-Spin Scale   =       1.2000000000000000 [-]
	 SCS Same-Spin Energy      =      -0.4907045176680603 [Eh]
	 SCS Opposite-Spin Energy  =      -4.8596601468037752 [Eh]
	 SCS Correlation Energy    =      -5.3503646644718357 [Eh]
	 SCS Total Energy          =   -1577.6801625383868668 [Eh]
	-----------------------------------------------------------

*** Psi4 exiting successfully. Buy a developer a beer!
