 Gaussian 09, Revision A.02,
 Gaussian 09:  EM64L-G09RevA.02 11-Jun-2009

 --------------------------------------------------
 #P opt=(,maxcycle=400) wB97XD/6-31G* MaxDisk=100GB
 --------------------------------------------------

 -----------------------------------------------------------------
 MOLECULE0 Rotatable Bond Optimization on g2-node38.bme.utexas.edu
 -----------------------------------------------------------------
 Symbolic Z-matrix:
 Charge =  0 Multiplicity = 1

 SCF Done:  E(RwB97XD) =  -1581.46173036     A.U. after   16 cycles
 SCF Done:  E(RwB97XD) =  -1581.53470674     A.U. after   14 cycles
 SCF Done:  E(RwB97XD) =  -1581.64516269     A.U. after   17 cycles
 SCF Done:  E(RwB97XD) =  -1581.60547039     A.U. after   17 cycles
 SCF Done:  E(RwB97XD) =  -1581.66608378     A.U. after   17 cycles
 SCF Done:  E(RwB97XD) =  -1581.72856563     A.U. after   17 cycles
 SCF Done:  E(RwB97XD) =  -1581.74509753     A.U. after   17 cycles
 SCF Done:  E(RwB97XD) =  -1581.74027535     A.U. after   17 cycles
 SCF Done:  E(RwB97XD) =  -1581.74996908     A.U. after   16 cycles
 SCF Done:  E(RwB97XD) =  -1581.74021078     A.U. after   17 cycles
 SCF Done:  E(RwB97XD) =  -1581.76982062     A.U. after   12 cycles
 SCF Done:  E(RwB97XD) =  -1581.76982928     A.U. after   12 cycles
 SCF Done:  E(RwB97XD) =  -1581.76983435     A.U. after   10 cycles
 SCF Done:  E(RwB97XD) =  -1581.76983620     A.U. after   10 cycles
 SCF Done:  E(RwB97XD) =  -1581.76983706     A.U. after   10 cycles
 SCF Done:  E(RwB97XD) =  -1581.76983696     A.U. after   10 cycles
 SCF Done:  E(RwB97XD) =  -1581.76983774     A.U. after   10 cycles
 SCF Done:  E(RwB97XD) =  -1581.76983729     A.U. after    8 cycles
 SCF Done:  E(RwB97XD) =  -1581.76983785     A.U. after    8 cycles
 SCF Done:  E(RwB97XD) =  -1581.76983751     A.U. after    8 cycles
 Optimization completed.
    -- Stationary point found.

                         Standard orientation:
 ---------------------------------------------------------------------
 Center     Atomic      Atomic             Coordinates (Angstroms)
 Number     Number       Type             X           Y           Z
 ---------------------------------------------------------------------
      1          6           0       -0.801534    3.961872   -0.335301
      2          6           0        0.564990    4.092599   -0.117869
      3          6           0        1.402119    3.018199   -0.414456
      4          6           0        0.806691    1.860864   -0.933207
      5          7           0       -0.500578    1.720324   -1.142758
      6          6           0       -1.285275    2.758870   -0.839296
      7          6           0        2.865232    3.032372   -0.163343
      8          6           0        3.639306    4.188330   -0.112107
      9          6           0        4.995790    4.003782    0.153156
     10          7           0        5.557684    2.817433    0.345062
     11          6           0        4.720735    1.763387    0.261664
     12          7           0        3.411944    1.828703    0.021053
     13          7           0        5.310320    0.543158    0.449036
     14          6           0        4.759059   -0.750176    0.365503
     15          6           0        5.636639   -1.843679    0.220822
     16          6           0        5.074786   -3.113789    0.120189
     17          6           0        3.701743   -3.348133    0.138595
     18          6           0        2.855649   -2.252311    0.285204
     19          6           0        3.388009   -0.970726    0.425877
     20          7           0        1.452094   -2.315292    0.275345
     21          6           0        0.622939   -3.367572   -0.019879
     22          6           0       -0.811417   -2.957309   -0.196115
     23          6           0       -1.174554   -1.704948   -0.701697
     24          6           0       -2.511393   -1.362257   -0.839157
     25          6           0       -3.515553   -2.256239   -0.466861
     26          6           0       -3.150768   -3.511440    0.023146
     27          6           0       -1.812236   -3.866944    0.143847
     28          6           0       -4.970340   -1.869520   -0.630108
     29          7           0       -5.202245   -0.462454   -0.354478
     30          6           0       -6.497916   -0.003932   -0.836008
     31          6           0       -6.621445    1.506718   -0.615142
     32          7           0       -6.425448    1.916069    0.769978
     33          6           0       -7.564955    1.639625    1.627803
     34          6           0       -5.171795    1.365560    1.270720
     35          6           0       -5.032287   -0.143521    1.059038
     36          8           0        0.993612   -4.525863   -0.118882
     37          6           0        7.130467   -1.649178    0.162047
     38          1           0       -1.485191    4.771487   -0.103357
     39          1           0        0.967774    5.008280    0.305753
     40          1           0        1.436430    1.012971   -1.191151
     41          1           0       -2.350706    2.616648   -1.006464
     42          1           0        3.229806    5.175868   -0.284984
     43          1           0        5.666130    4.859250    0.208917
     44          1           0        6.308098    0.613049    0.581516
     45          1           0        5.742683   -3.964180    0.007545
     46          1           0        3.293737   -4.343984    0.034478
     47          1           0        2.725004   -0.127186    0.546342
     48          1           0        0.994996   -1.429083    0.429267
     49          1           0       -0.430869   -0.982509   -1.026111
     50          1           0       -2.781573   -0.384577   -1.224606
     51          1           0       -3.922415   -4.218115    0.319297
     52          1           0       -1.525593   -4.845131    0.516799
     53          1           0       -5.269711   -2.056835   -1.669769
     54          1           0       -5.602784   -2.524840    0.000785
     55          1           0       -6.574228   -0.222030   -1.907552
     56          1           0       -7.331593   -0.535113   -0.334326
     57          1           0       -7.600022    1.860798   -0.957505
     58          1           0       -5.853885    2.001647   -1.224554
     59          1           0       -7.802887    0.570289    1.762428
     60          1           0       -8.452342    2.129289    1.213019
     61          1           0       -7.379072    2.067130    2.618911
     62          1           0       -5.075425    1.606320    2.334996
     63          1           0       -4.346976    1.861125    0.741234
     64          1           0       -5.767287   -0.692844    1.680922
     65          1           0       -4.035751   -0.465460    1.377434
     66          1           0        7.531488   -1.220760    1.090928
     67          1           0        7.424919   -0.987286   -0.662524
     68          1           0        7.635839   -2.605941    0.008347
 ---------------------------------------------------------------------

 The electronic state is 1-A.
 Alpha  occ. eigenvalues --  -19.23159 -14.49143 -14.48149 -14.46411 -14.45946
 Alpha  occ. eigenvalues --  -14.45571 -14.44470 -14.43902 -10.41617 -10.39855
 Alpha  occ. eigenvalues --  -10.37439 -10.36201 -10.34968 -10.34761 -10.34498
 Alpha  occ. eigenvalues --  -10.33897 -10.33886 -10.33362 -10.32568 -10.32479
 Alpha  occ. eigenvalues --  -10.31797 -10.31711 -10.31697 -10.31646 -10.31388
 Alpha  occ. eigenvalues --  -10.31206 -10.30754 -10.30507 -10.30244 -10.30079
 Alpha  occ. eigenvalues --  -10.29960 -10.29914 -10.29873 -10.29434 -10.29227
 Alpha  occ. eigenvalues --  -10.28657 -10.28232  -1.13224  -1.12147  -1.06024
 Alpha  occ. eigenvalues --   -1.04888  -1.04394  -1.03409  -1.00604  -1.00552
 Alpha  occ. eigenvalues --   -0.95739  -0.94507  -0.92846  -0.89557  -0.88004
 Alpha  occ. eigenvalues --   -0.87199  -0.86272  -0.85922  -0.84143  -0.83633
 Alpha  occ. eigenvalues --   -0.82276  -0.79505  -0.78054  -0.77568  -0.76123
 Alpha  occ. eigenvalues --   -0.73831  -0.73619  -0.72897  -0.72504  -0.70920
 Alpha  occ. eigenvalues --   -0.69987  -0.69533  -0.67615  -0.66058  -0.64928
 Alpha  occ. eigenvalues --   -0.64207  -0.63227  -0.61989  -0.61547  -0.60025
 Alpha  occ. eigenvalues --   -0.58743  -0.58542  -0.57462  -0.56382  -0.55820
 Alpha  occ. eigenvalues --   -0.55744  -0.55692  -0.55593  -0.55010  -0.54616
 Alpha  occ. eigenvalues --   -0.53937  -0.53597  -0.52992  -0.52411  -0.52010
 Alpha  occ. eigenvalues --   -0.51566  -0.51383  -0.51102  -0.50996  -0.50484
 Alpha  occ. eigenvalues --   -0.50245  -0.49888  -0.49558  -0.49340  -0.48493
 Alpha  occ. eigenvalues --   -0.47970  -0.47091  -0.47073  -0.46467  -0.45979
 Alpha  occ. eigenvalues --   -0.45859  -0.45337  -0.44149  -0.43811  -0.43232
 Alpha  occ. eigenvalues --   -0.43198  -0.42719  -0.42548  -0.42377  -0.41563
 Alpha  occ. eigenvalues --   -0.41373  -0.40843  -0.39783  -0.37985  -0.37380
 Alpha  occ. eigenvalues --   -0.35482  -0.35083  -0.33819  -0.33174  -0.33134
 Alpha  occ. eigenvalues --   -0.32446  -0.31346  -0.30502  -0.28965  -0.27751
 Alpha  occ. eigenvalues --   -0.26942
 Alpha virt. eigenvalues --   -0.00081   0.03155   0.03841   0.04699   0.06990
 Alpha virt. eigenvalues --    0.07470   0.08502   0.10536   0.14399   0.15085
 Alpha virt. eigenvalues --    0.15739   0.16318   0.16944   0.17786   0.18768

 Mulliken atomic charges:
              1
     1  C   -0.199030
     2  C   -0.155579
     3  C    0.034238
     4  C    0.006461
     5  N   -0.434556
     6  C    0.027566
     7  C    0.293586
     8  C   -0.254075
     9  C    0.048005
    10  N   -0.493203
    11  C    0.711892
    12  N   -0.566575
    13  N   -0.800776
    14  C    0.291278
    15  C    0.119226
    16  C   -0.240302
    17  C   -0.191045
    18  C    0.356771
    19  C   -0.267784
    20  N   -0.761581
    21  C    0.590829
    22  C    0.018644
    23  C   -0.211722
    24  C   -0.198795
    25  C    0.109355
    26  C   -0.220401
    27  C   -0.182706
    28  C   -0.202841
    29  N   -0.418939
    30  C   -0.161760
    31  C   -0.180449
    32  N   -0.388600
    33  C   -0.350610
    34  C   -0.182437
    35  C   -0.169280
    36  O   -0.515938
    37  C   -0.605924
    38  H    0.187562
    39  H    0.185605
    40  H    0.200685
    41  H    0.189043
    42  H    0.180753
    43  H    0.188869
    44  H    0.368594
    45  H    0.160264
    46  H    0.213980
    47  H    0.196484
    48  H    0.359159
    49  H    0.185345
    50  H    0.186173
    51  H    0.163170
    52  H    0.194138
    53  H    0.179294
    54  H    0.136928
    55  H    0.162569
    56  H    0.129007
    57  H    0.160052
    58  H    0.163800
    59  H    0.139227
    60  H    0.168465
    61  H    0.169395
    62  H    0.160781
    63  H    0.161763
    64  H    0.128686
    65  H    0.177564
    66  H    0.176970
    67  H    0.182930
    68  H    0.189801
 Sum of Mulliken atomic charges =   0.00000

 Dipole moment (field-independent basis, Debye):
    X=             -1.4883    Y=              5.8281    Z=              0.9356  Tot=              6.0874
 Quadrupole moment (field-independent basis, Debye-Ang):
   XX=           -182.1895   YY=           -210.1889   ZZ=           -218.2684
   XY=             10.8905   XZ=             -0.6637   YZ=             -1.9635

 Normal termination of Gaussian 09 at Tue Mar 10 20:55:42 2020.
