 Gaussian 09, Revision A.02,
 Gaussian 09:  EM64L-G09RevA.02 11-Jun-2009

 --------------------------------------------------
 #P opt=(,maxcycle=400) wB97XD/6-31G* MaxDisk=100GB
 --------------------------------------------------

 -----------------------------------------------------------------
 MOLECULE0 Rotatable Bond Optimization on g2-node38.bme.utexas.edu
 -----------------------------------------------------------------
 Symbolic Z-matrix:
 Charge =  0 Multiplicity = 1

 SCF Done:  E(RwB97XD) =  -1581.50690222     A.U. after   16 cycles
 SCF Done:  E(RwB97XD) =  -1581.56664136     A.U. after   13 cycles
 SCF Done:  E(RwB97XD) =  -1581.66579464     A.U. after   14 cycles
 SCF Done:  E(RwB97XD) =  -1581.71794767     A.U. after   15 cycles
 SCF Done:  E(RwB97XD) =  -1581.74196349     A.U. after   15 cycles
 SCF Done:  E(RwB97XD) =  -1581.75046961     A.U. after   16 cycles
 SCF Done:  E(RwB97XD) =  -1581.75613776     A.U. after   17 cycles
 SCF Done:  E(RwB97XD) =  -1581.75516061     A.U. after   16 cycles
 SCF Done:  E(RwB97XD) =  -1581.75834792     A.U. after   14 cycles
 SCF Done:  E(RwB97XD) =  -1581.76021418     A.U. after   14 cycles
 SCF Done:  E(RwB97XD) =  -1581.76303980     A.U. after   13 cycles
 SCF Done:  E(RwB97XD) =  -1581.76314598     A.U. after   12 cycles
 SCF Done:  E(RwB97XD) =  -1581.76318837     A.U. after   12 cycles
 SCF Done:  E(RwB97XD) =  -1581.76319875     A.U. after   12 cycles
 SCF Done:  E(RwB97XD) =  -1581.76320777     A.U. after   11 cycles
 SCF Done:  E(RwB97XD) =  -1581.76321302     A.U. after   10 cycles
 SCF Done:  E(RwB97XD) =  -1581.76321487     A.U. after    9 cycles
 SCF Done:  E(RwB97XD) =  -1581.76321549     A.U. after    8 cycles
 SCF Done:  E(RwB97XD) =  -1581.76321592     A.U. after    7 cycles
 SCF Done:  E(RwB97XD) =  -1581.76321622     A.U. after    8 cycles
 Optimization completed.
    -- Stationary point found.

                         Standard orientation:
 ---------------------------------------------------------------------
 Center     Atomic      Atomic             Coordinates (Angstroms)
 Number     Number       Type             X           Y           Z
 ---------------------------------------------------------------------
      1          6           0       -0.472753    4.274929   -0.771920
      2          6           0        0.871835    4.192240   -0.430752
      3          6           0        1.548206    2.990225   -0.631871
      4          6           0        0.821703    1.926146   -1.182774
      5          7           0       -0.467268    1.989894   -1.511746
      6          6           0       -1.096166    3.149976   -1.300724
      7          6           0        2.970018    2.789033   -0.254045
      8          6           0        3.901037    3.818914   -0.154171
      9          6           0        5.186821    3.446156    0.236163
     10          7           0        5.545952    2.196797    0.497542
     11          6           0        4.572509    1.274438    0.354660
     12          7           0        3.312757    1.523275   -0.002577
     13          7           0        4.960951   -0.011581    0.613515
     14          6           0        4.244977   -1.217524    0.494713
     15          6           0        4.968497   -2.427341    0.479610
     16          6           0        4.247674   -3.610023    0.338042
     17          6           0        2.861918   -3.650991    0.195052
     18          6           0        2.170872   -2.443304    0.216964
     19          6           0        2.859427   -1.243528    0.393853
     20          7           0        0.784399   -2.304949    0.038966
     21          6           0       -0.155961   -3.232013   -0.330889
     22          6           0       -1.475329   -2.600384   -0.675188
     23          6           0       -1.550401   -1.357327   -1.310598
     24          6           0       -2.782735   -0.778061   -1.574395
     25          6           0       -3.966152   -1.409392   -1.191617
     26          6           0       -3.884480   -2.676933   -0.608304
     27          6           0       -2.654376   -3.273795   -0.357963
     28          6           0       -5.303120   -0.703518   -1.348530
     29          7           0       -5.692878    0.226343   -0.299345
     30          6           0       -5.026152    1.523101   -0.247281
     31          6           0       -3.815948    1.578203    0.702893
     32          7           0       -4.112785    1.069045    2.038957
     33          6           0       -4.901705    1.977812    2.851581
     34          6           0       -4.678623   -0.274463    1.939837
     35          6           0       -5.914013   -0.340310    1.026508
     36          8           0        0.035697   -4.435925   -0.364264
     37          6           0        6.471271   -2.443435    0.599333
     38          1           0       -1.032115    5.191611   -0.619107
     39          1           0        1.376978    5.045339    0.013014
     40          1           0        1.325803    0.980801   -1.366775
     41          1           0       -2.151133    3.176816   -1.565035
     42          1           0        3.662296    4.850811   -0.379847
     43          1           0        5.968385    4.196263    0.339362
     44          1           0        5.942087   -0.077909    0.839699
     45          1           0        4.795715   -4.548811    0.324811
     46          1           0        2.332825   -4.584937    0.064079
     47          1           0        2.314518   -0.312101    0.419347
     48          1           0        0.446031   -1.358465    0.130434
     49          1           0       -0.653988   -0.832212   -1.627363
     50          1           0       -2.810619    0.191410   -2.065269
     51          1           0       -4.799218   -3.196960   -0.332310
     52          1           0       -2.590696   -4.256397    0.098871
     53          1           0       -5.308867   -0.147878   -2.294081
     54          1           0       -6.095563   -1.459216   -1.423178
     55          1           0       -4.724641    1.804659   -1.263348
     56          1           0       -5.767373    2.268066    0.078859
     57          1           0       -3.458904    2.612119    0.792491
     58          1           0       -2.991100    0.983265    0.295343
     59          1           0       -5.911843    2.205322    2.467683
     60          1           0       -4.364179    2.927265    2.952002
     61          1           0       -5.017291    1.550589    3.853671
     62          1           0       -4.936703   -0.623398    2.947112
     63          1           0       -3.896646   -0.937675    1.551799
     64          1           0       -6.742870    0.207725    1.498960
     65          1           0       -6.247306   -1.378226    0.915365
     66          1           0        6.816847   -2.031692    1.557480
     67          1           0        6.951699   -1.867371   -0.202196
     68          1           0        6.851302   -3.466172    0.535919
 ---------------------------------------------------------------------

 The electronic state is 1-A.
 Alpha  occ. eigenvalues --  -19.23411 -14.49282 -14.48321 -14.46751 -14.46096
 Alpha  occ. eigenvalues --  -14.45762 -14.43616 -14.43135 -10.41777 -10.40081
 Alpha  occ. eigenvalues --  -10.37614 -10.36338 -10.35324 -10.35083 -10.34623
 Alpha  occ. eigenvalues --  -10.34135 -10.34017 -10.33622 -10.32863 -10.32367
 Alpha  occ. eigenvalues --  -10.31860 -10.31490 -10.31179 -10.30935 -10.30707
 Alpha  occ. eigenvalues --  -10.30687 -10.30677 -10.30585 -10.30534 -10.30402
 Alpha  occ. eigenvalues --  -10.30377 -10.30220 -10.30020 -10.29975 -10.29575
 Alpha  occ. eigenvalues --  -10.28741 -10.28405  -1.13443  -1.12295  -1.06322
 Alpha  occ. eigenvalues --   -1.04565  -1.03829  -1.03634  -1.00715  -0.99558
 Alpha  occ. eigenvalues --   -0.96085  -0.94671  -0.93098  -0.89777  -0.88124
 Alpha  occ. eigenvalues --   -0.87388  -0.86228  -0.85400  -0.84541  -0.83783
 Alpha  occ. eigenvalues --   -0.81888  -0.79581  -0.78270  -0.77798  -0.76320
 Alpha  occ. eigenvalues --   -0.73881  -0.73301  -0.73024  -0.72621  -0.70871
 Alpha  occ. eigenvalues --   -0.70313  -0.69615  -0.68039  -0.66413  -0.65150
 Alpha  occ. eigenvalues --   -0.63655  -0.63409  -0.62228  -0.61762  -0.60211
 Alpha  occ. eigenvalues --   -0.58847  -0.58045  -0.57569  -0.56611  -0.56100
 Alpha  occ. eigenvalues --   -0.55817  -0.55237  -0.55134  -0.54965  -0.54255
 Alpha  occ. eigenvalues --   -0.53867  -0.53239  -0.53154  -0.52611  -0.52174
 Alpha  occ. eigenvalues --   -0.51912  -0.51510  -0.51370  -0.50999  -0.50575
 Alpha  occ. eigenvalues --   -0.50365  -0.50116  -0.49975  -0.49497  -0.48335
 Alpha  occ. eigenvalues --   -0.47217  -0.46906  -0.46619  -0.46320  -0.46211
 Alpha  occ. eigenvalues --   -0.45762  -0.45235  -0.44797  -0.44044  -0.43932
 Alpha  occ. eigenvalues --   -0.43327  -0.43016  -0.42141  -0.41766  -0.41439
 Alpha  occ. eigenvalues --   -0.40964  -0.40775  -0.39912  -0.38187  -0.37592
 Alpha  occ. eigenvalues --   -0.35821  -0.35293  -0.34001  -0.33446  -0.33372
 Alpha  occ. eigenvalues --   -0.32818  -0.31904  -0.30771  -0.29115  -0.27080
 Alpha  occ. eigenvalues --   -0.24995
 Alpha virt. eigenvalues --   -0.00292   0.02872   0.03585   0.04481   0.06434
 Alpha virt. eigenvalues --    0.07259   0.08204   0.10371   0.13887   0.14815
 Alpha virt. eigenvalues --    0.15729   0.16386   0.17253   0.17441   0.18252

 Mulliken atomic charges:
              1
     1  C   -0.197838
     2  C   -0.154407
     3  C    0.035492
     4  C    0.009583
     5  N   -0.437537
     6  C    0.035726
     7  C    0.295165
     8  C   -0.254773
     9  C    0.049020
    10  N   -0.493027
    11  C    0.714317
    12  N   -0.568385
    13  N   -0.802011
    14  C    0.291479
    15  C    0.119854
    16  C   -0.240375
    17  C   -0.191301
    18  C    0.358183
    19  C   -0.269652
    20  N   -0.758048
    21  C    0.585810
    22  C    0.015169
    23  C   -0.205338
    24  C   -0.217924
    25  C    0.155971
    26  C   -0.223088
    27  C   -0.178373
    28  C   -0.263572
    29  N   -0.382236
    30  C   -0.183889
    31  C   -0.181795
    32  N   -0.385702
    33  C   -0.349286
    34  C   -0.182635
    35  C   -0.186508
    36  O   -0.513289
    37  C   -0.607367
    38  H    0.186140
    39  H    0.186719
    40  H    0.198145
    41  H    0.179044
    42  H    0.180744
    43  H    0.189485
    44  H    0.369208
    45  H    0.160821
    46  H    0.213084
    47  H    0.199312
    48  H    0.361562
    49  H    0.185494
    50  H    0.172039
    51  H    0.163619
    52  H    0.195615
    53  H    0.170282
    54  H    0.168923
    55  H    0.148139
    56  H    0.158389
    57  H    0.141675
    58  H    0.174869
    59  H    0.135274
    60  H    0.164124
    61  H    0.167871
    62  H    0.153489
    63  H    0.172916
    64  H    0.159395
    65  H    0.155005
    66  H    0.178017
    67  H    0.182768
    68  H    0.190417
 Sum of Mulliken atomic charges =   0.00000

 Dipole moment (field-independent basis, Debye):
    X=              0.5810    Y=              6.5710    Z=              0.4330  Tot=              6.6108
 Quadrupole moment (field-independent basis, Debye-Ang):
   XX=           -193.2970   YY=           -202.5001   ZZ=           -220.4846
   XY=              3.1006   XZ=             -1.2775   YZ=             -5.2173

 Normal termination of Gaussian 09 at Thu Feb 27 16:45:43 2020.
