                               Psi4 1.3.2 release

  ==> Input File <==

--------------------------------------------------------------------------
molecule {
0 1
 C   -0.308793    4.449518   -1.140447
 C    1.028578    4.359978   -0.730743
 C    1.655310    3.101236   -0.647973
 C    0.864227    1.991548   -1.034981
 N   -0.412048    2.056916   -1.436694
 C   -0.983829    3.270512   -1.476694
 C    3.077685    2.899632   -0.187975
 C    4.013574    3.922543    0.034666
 C    5.287633    3.505460    0.439631
 N    5.636264    2.235267    0.636278
 C    4.669338    1.320437    0.421702
 N    3.432962    1.618484    0.018175
 N    5.030256    0.002187    0.651876
 C    4.341983   -1.254576    0.478131
 C    5.080612   -2.476770    0.461152
 C    4.355498   -3.666427    0.270915
 C    2.967147   -3.719239    0.094460
 C    2.252534   -2.518045    0.130975
 C    2.951662   -1.317221    0.326395
 N    0.841169   -2.371801   -0.043841
 C   -0.140706   -3.258279   -0.422900
 C   -1.488366   -2.648392   -0.763064
 C   -1.616186   -1.402957   -1.402199
 C   -2.876233   -0.845903   -1.622565
 C   -4.050504   -1.503526   -1.213312
 C   -3.910879   -2.779188   -0.631913
 C   -2.654146   -3.357640   -0.432404
 C   -5.412331   -0.820017   -1.344105
 N   -5.843186    0.121269   -0.294720
 C   -5.229173    1.468779   -0.234015
 C   -4.013408    1.588779    0.722311
 N   -4.283735    1.109124    2.099569
 C   -4.955947    2.049963    3.002979
 C   -4.850392   -0.260253    2.026064
 C   -6.068608   -0.394360    1.075139
 O    0.034902   -4.465532   -0.471508
 C    6.589963   -2.537934    0.624922
 H   -0.816137    5.408175   -1.196670
 H    1.550748    5.272972   -0.454915
 H    1.290133    0.992932   -1.045934
 H   -2.023125    3.286204   -1.801476
 H    3.814343    4.977536   -0.108166
 H    6.092364    4.216700    0.623809
 H    6.003664   -0.038470    0.913763
 H    4.891372   -4.614544    0.247019
 H    2.445494   -4.654412   -0.067742
 H    2.398255   -0.394814    0.374182
 H    0.515412   -1.421502    0.064597
 H   -0.728324   -0.852847   -1.704006
 H   -2.932559    0.141410   -2.080551
 H   -4.796078   -3.322878   -0.303562
 H   -2.557442   -4.339439    0.024682
 H   -5.437151   -0.270189   -2.295391
 H   -6.185376   -1.599060   -1.405305
 H   -4.965507    1.838531   -1.290349
 H   -6.276801    2.390119    0.274044
 H   -3.615887    2.873777    0.783353
 H   -3.050592    0.934103    0.286103
 H   -5.973529    2.265718    2.658347
 H   -4.393758    2.989311    3.057202
 H   -5.006613    1.632005    4.015002
 H   -5.161768   -0.645455    3.197381
 H   -3.803384   -1.114551    1.564773
 H   -7.173385    0.393961    1.656721
 H   -6.449555   -1.534897    1.033787
 H    6.925656   -2.151939    1.598098
 H    7.094330   -1.950097   -0.147083
 H    6.981280   -3.555614    0.546441
}
memory 20GB
set_num_threads(6)
psi4_io.set_default_path("/scratch/bdw2292")
set freeze_core True
E, wfn = energy('mp2/6-311++G**',return_wfn=True)
oeprop(wfn,"WIBERG_LOWDIN_INDICES")
clean()
--------------------------------------------------------------------------

    Molecular point group: c1

    Geometry (in Angstrom), charge = 0, multiplicity = 1:

       Center              X                  Y                   Z               Mass
    ------------   -----------------  -----------------  -----------------  -----------------
         C           -0.384860667205     4.464500552832    -1.112613407481    12.000000000000
         C            0.952510332795     4.374960552832    -0.702909407481    12.000000000000
         C            1.579242332795     3.116218552832    -0.620139407481    12.000000000000
         C            0.788159332795     2.006530552832    -1.007147407481    12.000000000000
         N           -0.488115667205     2.071898552832    -1.408860407481    14.003074004430
         C           -1.059896667205     3.285494552832    -1.448860407481    12.000000000000
         C            3.001617332795     2.914614552832    -0.160141407481    12.000000000000
         C            3.937506332795     3.937525552832     0.062499592519    12.000000000000
         C            5.211565332795     3.520442552832     0.467464592519    12.000000000000
         N            5.560196332795     2.250249552832     0.664111592519    14.003074004430
         C            4.593270332795     1.335419552832     0.449535592519    12.000000000000
         N            3.356894332795     1.633466552832     0.046008592519    14.003074004430
         N            4.954188332795     0.017169552832     0.679709592519    14.003074004430
         C            4.265915332795    -1.239593447168     0.505964592519    12.000000000000
         C            5.004544332795    -2.461787447168     0.488985592519    12.000000000000
         C            4.279430332795    -3.651444447168     0.298748592519    12.000000000000
         C            2.891079332795    -3.704256447168     0.122293592519    12.000000000000
         C            2.176466332795    -2.503062447168     0.158808592519    12.000000000000
         C            2.875594332795    -1.302238447168     0.354228592519    12.000000000000
         N            0.765101332795    -2.356818447168    -0.016007407481    14.003074004430
         C           -0.216773667205    -3.243296447168    -0.395066407481    12.000000000000
         C           -1.564433667205    -2.633409447168    -0.735230407481    12.000000000000
         C           -1.692253667205    -1.387974447168    -1.374365407481    12.000000000000
         C           -2.952300667205    -0.830920447168    -1.594731407481    12.000000000000
         C           -4.126571667205    -1.488543447168    -1.185478407481    12.000000000000
         C           -3.986946667205    -2.764205447168    -0.604079407481    12.000000000000
         C           -2.730213667205    -3.342657447168    -0.404570407481    12.000000000000
         C           -5.488398667205    -0.805034447168    -1.316271407481    12.000000000000
         N           -5.919253667205     0.136251552832    -0.266886407481    14.003074004430
         C           -5.305240667205     1.483761552832    -0.206181407481    12.000000000000
         C           -4.089475667205     1.603761552832     0.750144592519    12.000000000000
         N           -4.359802667205     1.124106552832     2.127402592519    14.003074004430
         C           -5.032014667205     2.064945552832     3.030812592519    12.000000000000
         C           -4.926459667205    -0.245270447168     2.053897592519    12.000000000000
         C           -6.144675667205    -0.379377447168     1.102972592519    12.000000000000
         O           -0.041165667205    -4.450549447168    -0.443674407481    15.994914619570
         C            6.513895332795    -2.522951447168     0.652755592519    12.000000000000
         H           -0.892204667205     5.423157552832    -1.168836407481     1.007825032230
         H            1.474680332795     5.287954552832    -0.427081407481     1.007825032230
         H            1.214065332795     1.007914552832    -1.018100407481     1.007825032230
         H           -2.099192667205     3.301186552832    -1.773642407481     1.007825032230
         H            3.738275332795     4.992518552832    -0.080332407481     1.007825032230
         H            6.016296332795     4.231682552832     0.651642592519     1.007825032230
         H            5.927596332795    -0.023487447168     0.941596592519     1.007825032230
         H            4.815304332795    -4.599561447168     0.274852592519     1.007825032230
         H            2.369426332795    -4.639429447168    -0.039908407481     1.007825032230
         H            2.322187332795    -0.379831447168     0.402015592519     1.007825032230
         H            0.439344332795    -1.406519447168     0.092430592519     1.007825032230
         H           -0.804391667205    -0.837864447168    -1.676172407481     1.007825032230
         H           -3.008626667205     0.156392552832    -2.052717407481     1.007825032230
         H           -4.872145667205    -3.307895447168    -0.275728407481     1.007825032230
         H           -2.633509667205    -4.324456447168     0.052515592519     1.007825032230
         H           -5.513218667205    -0.255206447168    -2.267557407481     1.007825032230
         H           -6.261443667205    -1.584077447168    -1.377471407481     1.007825032230
         H           -5.041574667205     1.853513552832    -1.262515407481     1.007825032230
         H           -6.352868667205     2.405101552832     0.301877592519     1.007825032230
         H           -3.691954667205     2.888759552832     0.811186592519     1.007825032230
         H           -3.126659667205     0.949085552832     0.313936592519     1.007825032230
         H           -6.049596667205     2.280700552832     2.686180592519     1.007825032230
         H           -4.469825667205     3.004293552832     3.085035592519     1.007825032230
         H           -5.082680667205     1.646987552832     4.042835592519     1.007825032230
         H           -5.237835667205    -0.630472447168     3.225214592519     1.007825032230
         H           -3.879451667205    -1.099568447168     1.592606592519     1.007825032230
         H           -7.249452667205     0.408943552832     1.684554592519     1.007825032230
         H           -6.525622667205    -1.519914447168     1.061620592519     1.007825032230
         H            6.849588332795    -2.136956447168     1.625931592519     1.007825032230
         H            7.018262332795    -1.935114447168    -0.119249407481     1.007825032230
         H            6.905212332795    -3.540631447168     0.574274592519     1.007825032230

  Charge       = 0
  Multiplicity = 1
  Basis Set: 6-311++G**
    Blend: 6-311++G**
  Basis Set: (6-311++G** AUX)
    Blend: AUG-CC-PVTZ-JKFIT

    Orbital Energies [Eh]
    ---------------------

    Doubly Occupied:

       1A    -20.522163     2A    -15.604336     3A    -15.601000
       4A    -15.587292     5A    -15.573921     6A    -15.569066
       7A    -15.568787     8A    -15.553939     9A    -11.375059
      10A    -11.364347    11A    -11.334708    12A    -11.314138
      13A    -11.311843    14A    -11.308018    15A    -11.307359
      16A    -11.301909    17A    -11.301708    18A    -11.301135
      19A    -11.298579    20A    -11.292385    21A    -11.289899
      22A    -11.280777    23A    -11.277635    24A    -11.266272
      25A    -11.256991    26A    -11.256046    27A    -11.252902
      28A    -11.252710    29A    -11.250092    30A    -11.247382
      31A    -11.245919    32A    -11.245705    33A    -11.244549
      34A    -11.240248    35A    -11.233861    36A    -11.230021
      37A    -11.225334    38A     -1.386002    39A     -1.345062
      40A     -1.278781    41A     -1.251806    42A     -1.244371
      43A     -1.241722    44A     -1.209691    45A     -1.198698
      46A     -1.161625    47A     -1.139665    48A     -1.116322
      49A     -1.075651    50A     -1.059613    51A     -1.048659
      52A     -1.037462    53A     -1.023437    54A     -1.008046
      55A     -0.992574    56A     -0.976650    57A     -0.947070
      58A     -0.927670    59A     -0.926691    60A     -0.901114
      61A     -0.873180    62A     -0.865754    63A     -0.858345
      64A     -0.841808    65A     -0.834653    66A     -0.827040
      67A     -0.825118    68A     -0.804998    69A     -0.778045
      70A     -0.754497    71A     -0.738856    72A     -0.730698
      73A     -0.722126    74A     -0.703203    75A     -0.696971
      76A     -0.682951    77A     -0.673327    78A     -0.667539
      79A     -0.658217    80A     -0.655808    81A     -0.652042
      82A     -0.642854    83A     -0.637308    84A     -0.629940
      85A     -0.622733    86A     -0.618146    87A     -0.612890
      88A     -0.607201    89A     -0.607025    90A     -0.603064
      91A     -0.600637    92A     -0.596642    93A     -0.591222
      94A     -0.587048    95A     -0.582322    96A     -0.580989
      97A     -0.579539    98A     -0.574504    99A     -0.565036
     100A     -0.561665   101A     -0.547714   102A     -0.545173
     103A     -0.530121   104A     -0.528510   105A     -0.525224
     106A     -0.522629   107A     -0.514582   108A     -0.509597
     109A     -0.508783   110A     -0.506144   111A     -0.503060
     112A     -0.493971   113A     -0.484659   114A     -0.481233
     115A     -0.455812   116A     -0.451543   117A     -0.443755
     118A     -0.436233   119A     -0.427501   120A     -0.425285
     121A     -0.414392   122A     -0.410685   123A     -0.400514
     124A     -0.381863   125A     -0.374022   126A     -0.346620
     127A     -0.345040   128A     -0.341949   129A     -0.315107
     130A     -0.312342   131A     -0.290368

  @DF-RHF Final Energy: -1572.37068837081665

   => Energetics <=

    Nuclear Repulsion Energy =           3808.8838663856672611
    One-Electron Energy =               -9716.0955502996130235
    Two-Electron Energy =                4334.8409955431288836
    Total Energy =                      -1572.3706883708164241

  Dipole Moment: [D]
     X:     0.7287      Y:     6.8627      Z:    -0.0199     Total:     6.9013

  Basis Set: (6-311++G** AUX)
    Blend: AUG-CC-PVTZ-RI
	 Reference Energy          =   -1572.3706883708166515 [Eh]
	 Singles Energy            =      -0.0000000000000000 [Eh]
	 Same-Spin Energy          =      -1.4725506459074040 [Eh]
	 Opposite-Spin Energy      =      -4.0492934692217908 [Eh]
	 Correlation Energy        =      -5.5218441151291948 [Eh]
	 Total Energy              =   -1577.8925324859458215 [Eh]

	 ================> DF-SCS-MP2 Energies <==================
	-----------------------------------------------------------
	 SCS Same-Spin Scale       =       0.3333333333333333 [-]
	 SCS Opposite-Spin Scale   =       1.2000000000000000 [-]
	 SCS Same-Spin Energy      =      -0.4908502153024680 [Eh]
	 SCS Opposite-Spin Energy  =      -4.8591521630661489 [Eh]
	 SCS Correlation Energy    =      -5.3500023783686173 [Eh]
	 SCS Total Energy          =   -1577.7206907491852235 [Eh]
	-----------------------------------------------------------

*** Psi4 exiting successfully. Buy a developer a beer!
