                               Psi4 1.3.2 release

  ==> Input File <==

--------------------------------------------------------------------------
molecule {
0 1
 C   -0.228284    4.445250   -0.799239
 C    1.116977    4.324475   -0.424954
 C    1.718952    3.052037   -0.362037
 C    0.888977    1.963023   -0.727946
 N   -0.394769    2.056304   -1.097967
 C   -0.938660    3.282888   -1.119815
 C    3.153860    2.827331    0.049432
 C    4.096773    3.833269    0.314476
 C    5.379590    3.387871    0.653277
 N    5.730708    2.108920    0.755855
 C    4.754005    1.210087    0.511917
 N    3.504895    1.531831    0.163322
 N    5.118652   -0.122413    0.648308
 C    4.423736   -1.365517    0.416972
 C    5.165752   -2.579912    0.302477
 C    4.436911   -3.756742    0.057354
 C    3.043713   -3.800750   -0.075591
 C    2.329922   -2.606236    0.061753
 C    3.029668   -1.413694    0.303169
 N    0.913011   -2.452227   -0.050240
 C   -0.072221   -3.324825   -0.447799
 C   -1.444449   -2.731516   -0.703849
 C   -1.622318   -1.452001   -1.256758
 C   -2.903775   -0.932329   -1.439447
 C   -4.051121   -1.670597   -1.095510
 C   -3.859880   -2.960045   -0.562316
 C   -2.580221   -3.491767   -0.381393
 C   -5.443661   -1.054514   -1.242899
 N   -5.965012   -0.184090   -0.167939
 C   -5.991162    1.281498   -0.382391
 C   -4.722192    2.013343    0.126193
 N   -4.393142    1.744055    1.546665
 C   -5.122259    2.525763    2.551391
 C   -4.355179    0.276311    1.757893
 C   -5.607023   -0.480116    1.240047
 O    0.120662   -4.523541   -0.575420
 C    6.679247   -2.646819    0.410128
 H   -0.715924    5.414764   -0.838384
 H    1.661686    5.228876   -0.165494
 H    1.296968    0.958225   -0.747376
 H   -1.985007    3.336203   -1.415730
 H    3.889910    4.893942    0.241603
 H    6.174295    4.105975    0.854289
 H    6.099068   -0.183448    0.878905
 H    4.971347   -4.699891   -0.049848
 H    2.520096   -4.727434   -0.277200
 H    2.485070   -0.489453    0.408932
 H    0.587803   -1.512438    0.129153
 H   -0.756462   -0.851884   -1.526172
 H   -2.997562    0.071380   -1.852059
 H   -4.721543   -3.561278   -0.273008
 H   -2.440004   -4.486317    0.034499
 H   -5.463882   -0.469405   -2.173785
 H   -6.168564   -1.872715   -1.359429
 H   -6.221004    1.510285   -1.383631
 H   -7.175364    1.848565    0.477789
 H   -4.968886    3.477290   -0.030178
 H   -3.798828    1.734825   -0.515929
 H   -6.191089    2.284452    2.539702
 H   -5.000309    3.597581    2.357680
 H   -4.724906    2.319513    3.551833
 H   -4.225207    0.011198    3.170710
 H   -3.276917   -0.185790    1.156642
 H   -6.807064    0.047297    2.135212
 H   -5.553882   -1.505379    1.400281
 H    7.024358   -2.332357    1.405200
 H    7.164238   -1.994446   -0.329738
 H    7.076278   -3.657820    0.244548
}
memory 20GB
set_num_threads(6)
psi4_io.set_default_path("/scratch/bdw2292")
set freeze_core True
E, wfn = energy('mp2/6-311++G**',return_wfn=True)
oeprop(wfn,"WIBERG_LOWDIN_INDICES")
clean()
--------------------------------------------------------------------------

    Molecular point group: c1

    Geometry (in Angstrom), charge = 0, multiplicity = 1:

       Center              X                  Y                   Z               Mass
    ------------   -----------------  -----------------  -----------------  -----------------
         C           -0.325513278224     4.486894250922    -0.792954695352    12.000000000000
         C            1.019747721776     4.366119250922    -0.418669695352    12.000000000000
         C            1.621722721776     3.093681250922    -0.355752695352    12.000000000000
         C            0.791747721776     2.004667250922    -0.721661695352    12.000000000000
         N           -0.491998278224     2.097948250922    -1.091682695352    14.003074004430
         C           -1.035889278224     3.324532250922    -1.113530695352    12.000000000000
         C            3.056630721776     2.868975250922     0.055716304648    12.000000000000
         C            3.999543721776     3.874913250922     0.320760304648    12.000000000000
         C            5.282360721776     3.429515250922     0.659561304648    12.000000000000
         N            5.633478721776     2.150564250922     0.762139304648    14.003074004430
         C            4.656775721776     1.251731250922     0.518201304648    12.000000000000
         N            3.407665721776     1.573475250922     0.169606304648    14.003074004430
         N            5.021422721776    -0.080768749078     0.654592304648    14.003074004430
         C            4.326506721776    -1.323872749078     0.423256304648    12.000000000000
         C            5.068522721776    -2.538267749078     0.308761304648    12.000000000000
         C            4.339681721776    -3.715097749078     0.063638304648    12.000000000000
         C            2.946483721776    -3.759105749078    -0.069306695352    12.000000000000
         C            2.232692721776    -2.564591749078     0.068037304648    12.000000000000
         C            2.932438721776    -1.372049749078     0.309453304648    12.000000000000
         N            0.815781721776    -2.410582749078    -0.043955695352    14.003074004430
         C           -0.169450278224    -3.283180749078    -0.441514695352    12.000000000000
         C           -1.541678278224    -2.689871749078    -0.697564695352    12.000000000000
         C           -1.719547278224    -1.410356749078    -1.250473695352    12.000000000000
         C           -3.001004278224    -0.890684749078    -1.433162695352    12.000000000000
         C           -4.148350278224    -1.628952749078    -1.089225695352    12.000000000000
         C           -3.957109278224    -2.918400749078    -0.556031695352    12.000000000000
         C           -2.677450278224    -3.450122749078    -0.375108695352    12.000000000000
         C           -5.540890278224    -1.012869749078    -1.236614695352    12.000000000000
         N           -6.062241278224    -0.142445749078    -0.161654695352    14.003074004430
         C           -6.088391278224     1.323142250922    -0.376106695352    12.000000000000
         C           -4.819421278224     2.054987250922     0.132477304648    12.000000000000
         N           -4.490371278224     1.785699250922     1.552949304648    14.003074004430
         C           -5.219488278224     2.567407250922     2.557675304648    12.000000000000
         C           -4.452408278224     0.317955250922     1.764177304648    12.000000000000
         C           -5.704252278224    -0.438471749078     1.246331304648    12.000000000000
         O            0.023432721776    -4.481896749078    -0.569135695352    15.994914619570
         C            6.582017721776    -2.605174749078     0.416412304648    12.000000000000
         H           -0.813153278224     5.456408250922    -0.832099695352     1.007825032230
         H            1.564456721776     5.270520250922    -0.159209695352     1.007825032230
         H            1.199738721776     0.999869250922    -0.741091695352     1.007825032230
         H           -2.082236278224     3.377847250922    -1.409445695352     1.007825032230
         H            3.792680721776     4.935586250922     0.247887304648     1.007825032230
         H            6.077065721776     4.147619250922     0.860573304648     1.007825032230
         H            6.001838721776    -0.141803749078     0.885189304648     1.007825032230
         H            4.874117721776    -4.658246749078    -0.043563695352     1.007825032230
         H            2.422866721776    -4.685789749078    -0.270915695352     1.007825032230
         H            2.387840721776    -0.447808749078     0.415216304648     1.007825032230
         H            0.490573721776    -1.470793749078     0.135437304648     1.007825032230
         H           -0.853691278224    -0.810239749078    -1.519887695352     1.007825032230
         H           -3.094791278224     0.113024250922    -1.845774695352     1.007825032230
         H           -4.818772278224    -3.519633749078    -0.266723695352     1.007825032230
         H           -2.537233278224    -4.444672749078     0.040783304648     1.007825032230
         H           -5.561111278224    -0.427760749078    -2.167500695352     1.007825032230
         H           -6.265793278224    -1.831070749078    -1.353144695352     1.007825032230
         H           -6.318233278224     1.551929250922    -1.377346695352     1.007825032230
         H           -7.272593278224     1.890209250922     0.484073304648     1.007825032230
         H           -5.066115278224     3.518934250922    -0.023893695352     1.007825032230
         H           -3.896057278224     1.776469250922    -0.509644695352     1.007825032230
         H           -6.288318278224     2.326096250922     2.545986304648     1.007825032230
         H           -5.097538278224     3.639225250922     2.363964304648     1.007825032230
         H           -4.822135278224     2.361157250922     3.558117304648     1.007825032230
         H           -4.322436278224     0.052842250922     3.176994304648     1.007825032230
         H           -3.374146278224    -0.144145749078     1.162926304648     1.007825032230
         H           -6.904293278224     0.088941250922     2.141496304648     1.007825032230
         H           -5.651111278224    -1.463734749078     1.406565304648     1.007825032230
         H            6.927128721776    -2.290712749078     1.411484304648     1.007825032230
         H            7.067008721776    -1.952801749078    -0.323453695352     1.007825032230
         H            6.979048721776    -3.616175749078     0.250832304648     1.007825032230

  Charge       = 0
  Multiplicity = 1
  Basis Set: 6-311++G**
    Blend: 6-311++G**
  Basis Set: (6-311++G** AUX)
    Blend: AUG-CC-PVTZ-JKFIT

    Orbital Energies [Eh]
    ---------------------

    Doubly Occupied:

       1A    -20.523846     2A    -15.604373     3A    -15.603108
       4A    -15.586494     5A    -15.574420     6A    -15.572635
       7A    -15.569238     8A    -15.557955     9A    -11.375852
      10A    -11.366125    11A    -11.334428    12A    -11.315652
      13A    -11.314214    14A    -11.311505    15A    -11.305065
      16A    -11.302893    17A    -11.302060    18A    -11.300320
      19A    -11.299968    20A    -11.293530    21A    -11.288267
      22A    -11.282640    23A    -11.279574    24A    -11.263977
      25A    -11.262515    26A    -11.260649    27A    -11.256045
      28A    -11.254154    29A    -11.252408    30A    -11.250679
      31A    -11.249069    32A    -11.247866    33A    -11.243572
      34A    -11.240889    35A    -11.235882    36A    -11.231016
      37A    -11.226010    38A     -1.388637    39A     -1.344474
      40A     -1.277619    41A     -1.253218    42A     -1.248769
      43A     -1.241988    44A     -1.209734    45A     -1.202103
      46A     -1.165752    47A     -1.140456    48A     -1.115105
      49A     -1.075180    50A     -1.062897    51A     -1.048086
      52A     -1.039217    53A     -1.027516    54A     -1.008643
      55A     -1.003492    56A     -0.980600    57A     -0.947986
      58A     -0.930026    59A     -0.925982    60A     -0.900849
      61A     -0.872234    62A     -0.869667    63A     -0.857666
      64A     -0.845819    65A     -0.840193    66A     -0.836528
      67A     -0.826512    68A     -0.808153    69A     -0.779603
      70A     -0.754222    71A     -0.740471    72A     -0.732255
      73A     -0.722111    74A     -0.718140    75A     -0.699871
      76A     -0.683495    77A     -0.682416    78A     -0.668223
      79A     -0.662717    80A     -0.657469    81A     -0.652284
      82A     -0.651570    83A     -0.638531    84A     -0.632473
      85A     -0.623188    86A     -0.619304    87A     -0.613581
      88A     -0.612394    89A     -0.607112    90A     -0.604036
      91A     -0.601732    92A     -0.598400    93A     -0.593056
      94A     -0.591378    95A     -0.586031    96A     -0.581588
      97A     -0.581292    98A     -0.575187    99A     -0.564310
     100A     -0.560553   101A     -0.550361   102A     -0.548343
     103A     -0.543105   104A     -0.533547   105A     -0.525310
     106A     -0.524054   107A     -0.515043   108A     -0.513165
     109A     -0.509815   110A     -0.507593   111A     -0.501790
     112A     -0.497046   113A     -0.485028   114A     -0.481979
     115A     -0.452067   116A     -0.442864   117A     -0.437177
     118A     -0.431273   119A     -0.427848   120A     -0.425502
     121A     -0.414661   122A     -0.399587   123A     -0.398819
     124A     -0.385647   125A     -0.373507   126A     -0.349422
     127A     -0.347089   128A     -0.345549   129A     -0.316138
     130A     -0.314178   131A     -0.291034

  @DF-RHF Final Energy: -1572.31311804431584

   => Energetics <=

    Nuclear Repulsion Energy =           3792.5111916234809541
    One-Electron Energy =               -9682.8255735643942899
    Two-Electron Energy =                4318.0012638965972656
    Total Energy =                      -1572.3131180443160702

  Dipole Moment: [D]
     X:     1.2212      Y:     6.3276      Z:    -0.3385     Total:     6.4533

  Basis Set: (6-311++G** AUX)
    Blend: AUG-CC-PVTZ-RI
	 Reference Energy          =   -1572.3131180443158428 [Eh]
	 Singles Energy            =      -0.0000000000000000 [Eh]
	 Same-Spin Energy          =      -1.4716838309930131 [Eh]
	 Opposite-Spin Energy      =      -4.0498117041829271 [Eh]
	 Correlation Energy        =      -5.5214955351759407 [Eh]
	 Total Energy              =   -1577.8346135794918155 [Eh]

	 ================> DF-SCS-MP2 Energies <==================
	-----------------------------------------------------------
	 SCS Same-Spin Scale       =       0.3333333333333333 [-]
	 SCS Opposite-Spin Scale   =       1.2000000000000000 [-]
	 SCS Same-Spin Energy      =      -0.4905612769976710 [Eh]
	 SCS Opposite-Spin Energy  =      -4.8597740450195124 [Eh]
	 SCS Correlation Energy    =      -5.3503353220171839 [Eh]
	 SCS Total Energy          =   -1577.6634533663329876 [Eh]
	-----------------------------------------------------------

*** Psi4 exiting successfully. Buy a developer a beer!
