 Gaussian 09, Revision A.02,
 Gaussian 09:  EM64L-G09RevA.02 11-Jun-2009

 --------------------------------------------------
 #P opt=(,maxcycle=400) wB97XD/6-31G* MaxDisk=100GB
 --------------------------------------------------

 -----------------------------------------------------------------
 MOLECULE0 Rotatable Bond Optimization on g2-node38.bme.utexas.edu
 -----------------------------------------------------------------
 Symbolic Z-matrix:
 Charge =  0 Multiplicity = 1

 SCF Done:  E(RwB97XD) =  -1581.47278912     A.U. after   16 cycles
 SCF Done:  E(RwB97XD) =  -1581.53801866     A.U. after   13 cycles
 SCF Done:  E(RwB97XD) =  -1581.63552791     A.U. after   14 cycles
 SCF Done:  E(RwB97XD) =  -1581.70481782     A.U. after   17 cycles
 SCF Done:  E(RwB97XD) =  -1581.73031709     A.U. after   17 cycles
 SCF Done:  E(RwB97XD) =  -1581.74192191     A.U. after   17 cycles
 SCF Done:  E(RwB97XD) =  -1581.74667834     A.U. after   15 cycles
 SCF Done:  E(RwB97XD) =  -1581.74995741     A.U. after   16 cycles
 SCF Done:  E(RwB97XD) =  -1581.75165903     A.U. after   17 cycles
 SCF Done:  E(RwB97XD) =  -1581.75058251     A.U. after   17 cycles
 SCF Done:  E(RwB97XD) =  -1581.76403010     A.U. after   11 cycles
 SCF Done:  E(RwB97XD) =  -1581.76403134     A.U. after    9 cycles
 SCF Done:  E(RwB97XD) =  -1581.76403270     A.U. after    8 cycles
 SCF Done:  E(RwB97XD) =  -1581.76403408     A.U. after    9 cycles
 SCF Done:  E(RwB97XD) =  -1581.76403485     A.U. after    9 cycles
 SCF Done:  E(RwB97XD) =  -1581.76403585     A.U. after    9 cycles
 SCF Done:  E(RwB97XD) =  -1581.76403643     A.U. after   10 cycles
 SCF Done:  E(RwB97XD) =  -1581.76403701     A.U. after    8 cycles
 SCF Done:  E(RwB97XD) =  -1581.76403708     A.U. after    8 cycles
 SCF Done:  E(RwB97XD) =  -1581.76403717     A.U. after    7 cycles
 Optimization completed.
    -- Stationary point found.

                         Standard orientation:
 ---------------------------------------------------------------------
 Center     Atomic      Atomic             Coordinates (Angstroms)
 Number     Number       Type             X           Y           Z
 ---------------------------------------------------------------------
      1          6           0       -0.605105    4.167691   -0.064820
      2          6           0        0.773601    4.156177    0.105308
      3          6           0        1.476619    2.981797   -0.160899
      4          6           0        0.736734    1.873881   -0.597865
      5          7           0       -0.584584    1.868016   -0.753401
      6          6           0       -1.242035    3.003202   -0.486627
      7          6           0        2.940935    2.846590    0.029957
      8          6           0        3.830713    3.917967    0.086030
      9          6           0        5.169375    3.594432    0.296441
     10          7           0        5.621102    2.351786    0.420400
     11          6           0        4.680965    1.391898    0.325831
     12          7           0        3.376671    1.590907    0.154960
     13          7           0        5.149212    0.107641    0.420821
     14          6           0        4.459770   -1.101080    0.204063
     15          6           0        5.192312   -2.224075   -0.226441
     16          6           0        4.489373   -3.402311   -0.462027
     17          6           0        3.109370   -3.510595   -0.311379
     18          6           0        2.406346   -2.389791    0.125074
     19          6           0        3.087755   -1.207108    0.410846
     20          7           0        1.010578   -2.349513    0.313783
     21          6           0        0.063604   -3.225558   -0.153526
     22          6           0       -1.349279   -2.802380    0.135895
     23          6           0       -2.339328   -3.169000   -0.774672
     24          6           0       -3.661236   -2.804715   -0.553325
     25          6           0       -4.030756   -2.085437    0.585492
     26          6           0       -3.037737   -1.750305    1.507666
     27          6           0       -1.710141   -2.093514    1.284884
     28          6           0       -5.483600   -1.697626    0.819430
     29          7           0       -5.911545   -0.365183    0.434498
     30          6           0       -5.851152   -0.034220   -0.983654
     31          6           0       -4.584472    0.739805   -1.381710
     32          7           0       -4.365527    1.923207   -0.549751
     33          6           0       -5.286194    3.015188   -0.818956
     34          6           0       -4.310646    1.523727    0.855160
     35          6           0       -5.562251    0.751557    1.301855
     36          8           0        0.317257   -4.250843   -0.763463
     37          6           0        6.682257   -2.150585   -0.443409
     38          1           0       -1.183143    5.062909    0.140271
     39          1           0        1.288311    5.042938    0.464976
     40          1           0        1.258097    0.950581   -0.836335
     41          1           0       -2.323762    2.949843   -0.613271
     42          1           0        3.518472    4.947379   -0.038561
     43          1           0        5.920298    4.379245    0.362334
     44          1           0        6.155349    0.064548    0.481558
     45          1           0        5.041954   -4.275288   -0.800118
     46          1           0        2.589998   -4.429739   -0.541721
     47          1           0        2.541858   -0.341943    0.758204
     48          1           0        0.657898   -1.456723    0.627846
     49          1           0       -2.056592   -3.746468   -1.648843
     50          1           0       -4.424116   -3.096785   -1.271399
     51          1           0       -3.308592   -1.225909    2.421347
     52          1           0       -0.964200   -1.846261    2.035712
     53          1           0       -6.119462   -2.412025    0.280535
     54          1           0       -5.715229   -1.818442    1.884551
     55          1           0       -5.924813   -0.959316   -1.565574
     56          1           0       -6.736748    0.568078   -1.236817
     57          1           0       -4.646141    1.051968   -2.430961
     58          1           0       -3.701676    0.098085   -1.277812
     59          1           0       -6.348191    2.805167   -0.607976
     60          1           0       -5.205216    3.294192   -1.874987
     61          1           0       -4.994254    3.883738   -0.217440
     62          1           0       -4.180230    2.420815    1.473356
     63          1           0       -3.416466    0.901420    0.979473
     64          1           0       -6.415936    1.446085    1.327488
     65          1           0       -5.432015    0.378837    2.323895
     66          1           0        7.226835   -1.942502    0.487813
     67          1           0        6.950862   -1.370012   -1.166267
     68          1           0        7.062662   -3.099358   -0.830478
 ---------------------------------------------------------------------

 The electronic state is 1-A.
 Alpha  occ. eigenvalues --  -19.23556 -14.48721 -14.48568 -14.45461 -14.44977
 Alpha  occ. eigenvalues --  -14.44766 -14.44138 -14.43888 -10.41116 -10.40304
 Alpha  occ. eigenvalues --  -10.36856 -10.35717 -10.34349 -10.33982 -10.33482
 Alpha  occ. eigenvalues --  -10.32915 -10.32837 -10.32722 -10.32242 -10.31838
 Alpha  occ. eigenvalues --  -10.31576 -10.31415 -10.31339 -10.31312 -10.31296
 Alpha  occ. eigenvalues --  -10.31273 -10.31169 -10.31105 -10.30973 -10.30726
 Alpha  occ. eigenvalues --  -10.30583 -10.30492 -10.30243 -10.29845 -10.29421
 Alpha  occ. eigenvalues --  -10.28841 -10.28339  -1.13694  -1.11703  -1.04647
 Alpha  occ. eigenvalues --   -1.04395  -1.04048  -1.03463  -1.00138  -1.00023
 Alpha  occ. eigenvalues --   -0.96428  -0.94465  -0.91892  -0.88887  -0.88038
 Alpha  occ. eigenvalues --   -0.86392  -0.86118  -0.85845  -0.85004  -0.83467
 Alpha  occ. eigenvalues --   -0.82347  -0.79696  -0.78120  -0.77202  -0.75694
 Alpha  occ. eigenvalues --   -0.73776  -0.73098  -0.72603  -0.71672  -0.71038
 Alpha  occ. eigenvalues --   -0.70626  -0.69356  -0.68046  -0.66242  -0.64617
 Alpha  occ. eigenvalues --   -0.64071  -0.62982  -0.62089  -0.60746  -0.59868
 Alpha  occ. eigenvalues --   -0.58435  -0.57890  -0.56934  -0.56375  -0.55760
 Alpha  occ. eigenvalues --   -0.55570  -0.55417  -0.54931  -0.54689  -0.54307
 Alpha  occ. eigenvalues --   -0.54048  -0.53541  -0.53294  -0.52910  -0.52322
 Alpha  occ. eigenvalues --   -0.51325  -0.51264  -0.50941  -0.50650  -0.50494
 Alpha  occ. eigenvalues --   -0.50266  -0.49625  -0.49164  -0.48818  -0.48575
 Alpha  occ. eigenvalues --   -0.47283  -0.47189  -0.46797  -0.46459  -0.45869
 Alpha  occ. eigenvalues --   -0.45413  -0.45207  -0.44747  -0.44207  -0.43766
 Alpha  occ. eigenvalues --   -0.43346  -0.42640  -0.42507  -0.41969  -0.41447
 Alpha  occ. eigenvalues --   -0.41370  -0.40930  -0.39490  -0.37745  -0.36534
 Alpha  occ. eigenvalues --   -0.34520  -0.34376  -0.33746  -0.33305  -0.32954
 Alpha  occ. eigenvalues --   -0.32254  -0.32164  -0.31175  -0.28988  -0.27017
 Alpha  occ. eigenvalues --   -0.25578
 Alpha virt. eigenvalues --    0.00606   0.03185   0.04124   0.05506   0.06078
 Alpha virt. eigenvalues --    0.08110   0.08592   0.10655   0.14270   0.15047
 Alpha virt. eigenvalues --    0.16204   0.16663   0.16933   0.18005   0.18857

 Mulliken atomic charges:
              1
     1  C   -0.201467
     2  C   -0.158942
     3  C    0.030081
     4  C   -0.001190
     5  N   -0.435073
     6  C    0.012220
     7  C    0.296430
     8  C   -0.253070
     9  C    0.046125
    10  N   -0.493801
    11  C    0.700579
    12  N   -0.566064
    13  N   -0.790023
    14  C    0.284562
    15  C    0.122467
    16  C   -0.240681
    17  C   -0.186867
    18  C    0.351595
    19  C   -0.258291
    20  N   -0.762676
    21  C    0.588954
    22  C    0.019437
    23  C   -0.174019
    24  C   -0.222869
    25  C    0.158288
    26  C   -0.216586
    27  C   -0.202539
    28  C   -0.267466
    29  N   -0.382141
    30  C   -0.186832
    31  C   -0.184063
    32  N   -0.393849
    33  C   -0.352071
    34  C   -0.184466
    35  C   -0.181600
    36  O   -0.511631
    37  C   -0.604399
    38  H    0.175087
    39  H    0.178090
    40  H    0.197035
    41  H    0.218991
    42  H    0.178684
    43  H    0.186358
    44  H    0.366468
    45  H    0.160426
    46  H    0.212440
    47  H    0.191931
    48  H    0.363596
    49  H    0.199331
    50  H    0.165257
    51  H    0.162875
    52  H    0.174390
    53  H    0.170817
    54  H    0.171339
    55  H    0.158443
    56  H    0.159177
    57  H    0.156981
    58  H    0.187091
    59  H    0.144165
    60  H    0.171631
    61  H    0.162086
    62  H    0.150167
    63  H    0.175568
    64  H    0.159370
    65  H    0.154222
    66  H    0.176614
    67  H    0.184439
    68  H    0.188866
 Sum of Mulliken atomic charges =   0.00000

 Dipole moment (field-independent basis, Debye):
    X=             -0.9915    Y=              5.3061    Z=              1.5238  Tot=              5.6089
 Quadrupole moment (field-independent basis, Debye-Ang):
   XX=           -192.0676   YY=           -207.5211   ZZ=           -213.4548
   XY=             -0.0211   XZ=             -0.3758   YZ=              1.6002

 Normal termination of Gaussian 09 at Tue Mar 10 16:20:08 2020.
