 Gaussian 09, Revision A.02,
 Gaussian 09:  EM64L-G09RevA.02 11-Jun-2009

 --------------------------------------------------
 #P opt=(,maxcycle=400) wB97XD/6-31G* MaxDisk=100GB
 --------------------------------------------------

 --------------------------------------------------------------
 MOLECULE0 Rotatable Bond Optimization on node37.bme.utexas.edu
 --------------------------------------------------------------
 Symbolic Z-matrix:
 Charge =  0 Multiplicity = 1

 SCF Done:  E(RwB97XD) =  -1581.52298900     A.U. after   16 cycles
 SCF Done:  E(RwB97XD) =  -1581.58230978     A.U. after   13 cycles
 SCF Done:  E(RwB97XD) =  -1581.67823684     A.U. after   17 cycles
 SCF Done:  E(RwB97XD) =  -1581.71842558     A.U. after   14 cycles
 SCF Done:  E(RwB97XD) =  -1581.72566961     A.U. after   17 cycles
 SCF Done:  E(RwB97XD) =  -1581.73647034     A.U. after   17 cycles
 SCF Done:  E(RwB97XD) =  -1581.75341050     A.U. after   14 cycles
 SCF Done:  E(RwB97XD) =  -1581.75491873     A.U. after   16 cycles
 SCF Done:  E(RwB97XD) =  -1581.75995311     A.U. after   16 cycles
 SCF Done:  E(RwB97XD) =  -1581.76414251     A.U. after   14 cycles
 SCF Done:  E(RwB97XD) =  -1581.76737025     A.U. after   11 cycles
 SCF Done:  E(RwB97XD) =  -1581.76737319     A.U. after    9 cycles
 SCF Done:  E(RwB97XD) =  -1581.76737454     A.U. after    8 cycles
 SCF Done:  E(RwB97XD) =  -1581.76737588     A.U. after   10 cycles
 SCF Done:  E(RwB97XD) =  -1581.76737652     A.U. after    8 cycles
 SCF Done:  E(RwB97XD) =  -1581.76737762     A.U. after   10 cycles
 SCF Done:  E(RwB97XD) =  -1581.76737857     A.U. after   10 cycles
 SCF Done:  E(RwB97XD) =  -1581.76737970     A.U. after    8 cycles
 SCF Done:  E(RwB97XD) =  -1581.76738036     A.U. after    8 cycles
 SCF Done:  E(RwB97XD) =  -1581.76738064     A.U. after    7 cycles
 Optimization completed.
    -- Stationary point found.

                         Standard orientation:
 ---------------------------------------------------------------------
 Center     Atomic      Atomic             Coordinates (Angstroms)
 Number     Number       Type             X           Y           Z
 ---------------------------------------------------------------------
      1          6           0       -0.646415    2.621531    0.534809
      2          6           0        0.694663    2.266138    0.510622
      3          6           0        1.618809    3.138801   -0.071710
      4          6           0        1.129721    4.325811   -0.623500
      5          7           0       -0.154042    4.682324   -0.611121
      6          6           0       -1.012146    3.840079   -0.032888
      7          6           0        3.061189    2.799245   -0.112702
      8          6           0        4.062281    3.766392   -0.168983
      9          6           0        5.372119    3.296611   -0.206349
     10          7           0        5.689701    2.009898   -0.181127
     11          6           0        4.647390    1.157637   -0.110671
     12          7           0        3.357287    1.494307   -0.080634
     13          7           0        5.014743   -0.160283   -0.065646
     14          6           0        4.251430   -1.334583    0.026323
     15          6           0        4.929557   -2.528988    0.346391
     16          6           0        4.179506   -3.696525    0.434352
     17          6           0        2.803718   -3.734489    0.227753
     18          6           0        2.155717   -2.544255   -0.091847
     19          6           0        2.878241   -1.354851   -0.201279
     20          7           0        0.771478   -2.446193   -0.335432
     21          6           0       -0.213322   -3.356134   -0.047530
     22          6           0       -1.597702   -2.862282   -0.359949
     23          6           0       -1.879024   -2.015153   -1.435186
     24          6           0       -3.175648   -1.564287   -1.648577
     25          6           0       -4.212035   -1.924574   -0.785673
     26          6           0       -3.929984   -2.813078    0.254413
     27          6           0       -2.640570   -3.284933    0.463762
     28          6           0       -5.602190   -1.327914   -0.939572
     29          7           0       -5.846883   -0.036616   -0.317196
     30          6           0       -5.334606    1.155655   -0.980589
     31          6           0       -3.956710    1.616117   -0.477778
     32          7           0       -3.886010    1.741664    0.978030
     33          6           0       -4.570519    2.914863    1.498600
     34          6           0       -4.318637    0.488903    1.600499
     35          6           0       -5.711883    0.034482    1.132323
     36          8           0       -0.016365   -4.453529    0.446645
     37          6           0        6.416795   -2.544869    0.592986
     38          1           0       -1.414948    1.994876    0.980431
     39          1           0        1.044174    1.334581    0.945569
     40          1           0        1.805209    5.016988   -1.124109
     41          1           0       -2.053242    4.155163   -0.020736
     42          1           0        3.847603    4.827398   -0.158533
     43          1           0        6.207107    3.992940   -0.251908
     44          1           0        6.017906   -0.268068   -0.059498
     45          1           0        4.690913   -4.622848    0.683331
     46          1           0        2.246700   -4.655182    0.324764
     47          1           0        2.374854   -0.429211   -0.445587
     48          1           0        0.455596   -1.522817   -0.593470
     49          1           0       -1.094770   -1.730475   -2.132071
     50          1           0       -3.384902   -0.914711   -2.495526
     51          1           0       -4.731499   -3.132890    0.916405
     52          1           0       -2.420625   -3.979291    1.268219
     53          1           0       -5.836013   -1.222811   -2.005506
     54          1           0       -6.333048   -2.034613   -0.525508
     55          1           0       -5.298630    0.974634   -2.060638
     56          1           0       -6.060594    1.967225   -0.822267
     57          1           0       -3.698537    2.580578   -0.930616
     58          1           0       -3.187817    0.896632   -0.780842
     59          1           0       -5.660164    2.937918    1.330339
     60          1           0       -4.146609    3.813111    1.037344
     61          1           0       -4.397114    2.980128    2.577768
     62          1           0       -4.309833    0.617229    2.689334
     63          1           0       -3.576918   -0.278895    1.351462
     64          1           0       -6.467631    0.738020    1.511679
     65          1           0       -5.950933   -0.944435    1.562032
     66          1           0        6.705606   -1.864971    1.404626
     67          1           0        6.988625   -2.258142   -0.300442
     68          1           0        6.748066   -3.547632    0.874380
 ---------------------------------------------------------------------

 The electronic state is 1-A.
 Alpha  occ. eigenvalues --  -19.24088 -14.49150 -14.49018 -14.45638 -14.45494
 Alpha  occ. eigenvalues --  -14.45254 -14.44752 -14.44485 -10.41410 -10.40877
 Alpha  occ. eigenvalues --  -10.36990 -10.35812 -10.34772 -10.34358 -10.34178
 Alpha  occ. eigenvalues --  -10.33794 -10.33270 -10.32415 -10.32329 -10.32275
 Alpha  occ. eigenvalues --  -10.32160 -10.32061 -10.32003 -10.31810 -10.31772
 Alpha  occ. eigenvalues --  -10.31762 -10.31724 -10.31418 -10.31321 -10.31205
 Alpha  occ. eigenvalues --  -10.31199 -10.30807 -10.30493 -10.30094 -10.29696
 Alpha  occ. eigenvalues --  -10.29147 -10.28553  -1.14247  -1.11908  -1.05088
 Alpha  occ. eigenvalues --   -1.04927  -1.04513  -1.03924  -1.00692  -1.00240
 Alpha  occ. eigenvalues --   -0.97149  -0.94798  -0.91759  -0.89379  -0.88645
 Alpha  occ. eigenvalues --   -0.86818  -0.86442  -0.86243  -0.85685  -0.83680
 Alpha  occ. eigenvalues --   -0.82873  -0.80130  -0.78570  -0.77406  -0.76021
 Alpha  occ. eigenvalues --   -0.74343  -0.73636  -0.72815  -0.71793  -0.71616
 Alpha  occ. eigenvalues --   -0.71220  -0.69819  -0.68524  -0.66744  -0.64958
 Alpha  occ. eigenvalues --   -0.64626  -0.63170  -0.62535  -0.61081  -0.60116
 Alpha  occ. eigenvalues --   -0.58973  -0.58181  -0.57565  -0.56649  -0.56348
 Alpha  occ. eigenvalues --   -0.55926  -0.55794  -0.55164  -0.54887  -0.54642
 Alpha  occ. eigenvalues --   -0.54423  -0.54138  -0.53873  -0.53287  -0.52596
 Alpha  occ. eigenvalues --   -0.51884  -0.51660  -0.51425  -0.51000  -0.50799
 Alpha  occ. eigenvalues --   -0.50408  -0.50019  -0.49366  -0.49204  -0.48843
 Alpha  occ. eigenvalues --   -0.47703  -0.47540  -0.47286  -0.47124  -0.46415
 Alpha  occ. eigenvalues --   -0.46062  -0.45849  -0.45151  -0.44691  -0.44089
 Alpha  occ. eigenvalues --   -0.43558  -0.43276  -0.42950  -0.42536  -0.41957
 Alpha  occ. eigenvalues --   -0.41848  -0.41096  -0.39714  -0.38104  -0.36396
 Alpha  occ. eigenvalues --   -0.35067  -0.34335  -0.34261  -0.34043  -0.33635
 Alpha  occ. eigenvalues --   -0.32954  -0.32671  -0.31975  -0.29393  -0.27113
 Alpha  occ. eigenvalues --   -0.26186
 Alpha virt. eigenvalues --    0.00535   0.02565   0.04138   0.04953   0.05309
 Alpha virt. eigenvalues --    0.07730   0.08197   0.10645   0.13796   0.14271
 Alpha virt. eigenvalues --    0.15592   0.15750   0.16868   0.17972   0.18382

 Mulliken atomic charges:
              1
     1  C   -0.194925
     2  C   -0.155702
     3  C    0.040361
     4  C   -0.013290
     5  N   -0.423406
     6  C    0.015010
     7  C    0.286151
     8  C   -0.251850
     9  C    0.048512
    10  N   -0.497096
    11  C    0.713321
    12  N   -0.566600
    13  N   -0.806733
    14  C    0.298511
    15  C    0.117521
    16  C   -0.239666
    17  C   -0.190029
    18  C    0.353522
    19  C   -0.272294
    20  N   -0.760382
    21  C    0.589900
    22  C    0.015718
    23  C   -0.211576
    24  C   -0.218104
    25  C    0.154749
    26  C   -0.222984
    27  C   -0.177687
    28  C   -0.264430
    29  N   -0.380964
    30  C   -0.184919
    31  C   -0.181213
    32  N   -0.395914
    33  C   -0.355925
    34  C   -0.183097
    35  C   -0.188861
    36  O   -0.510956
    37  C   -0.608898
    38  H    0.212489
    39  H    0.199667
    40  H    0.174213
    41  H    0.169173
    42  H    0.186392
    43  H    0.188602
    44  H    0.369494
    45  H    0.161349
    46  H    0.213283
    47  H    0.199513
    48  H    0.357509
    49  H    0.179588
    50  H    0.167820
    51  H    0.167893
    52  H    0.201574
    53  H    0.172891
    54  H    0.172661
    55  H    0.156833
    56  H    0.163368
    57  H    0.155255
    58  H    0.161731
    59  H    0.144104
    60  H    0.168520
    61  H    0.173499
    62  H    0.158527
    63  H    0.171135
    64  H    0.163465
    65  H    0.159037
    66  H    0.184925
    67  H    0.179358
    68  H    0.190357
 Sum of Mulliken atomic charges =   0.00000

 Dipole moment (field-independent basis, Debye):
    X=             -0.9192    Y=              2.1805    Z=              0.0412  Tot=              2.3666
 Quadrupole moment (field-independent basis, Debye-Ang):
   XX=           -188.4966   YY=           -231.2240   ZZ=           -212.7038
   XY=              2.9981   XZ=             -1.9448   YZ=              1.0280

 Normal termination of Gaussian 09 at Wed Mar 25 14:58:40 2020.
