                               Psi4 1.3.2 release

  ==> Input File <==

--------------------------------------------------------------------------
molecule {
0 1
 C   -0.143097    4.513067   -1.223728
 C    1.192619    4.399512   -0.813852
 C    1.769794    3.126051   -0.638422
 C    0.925457    2.025470   -0.928819
 N   -0.349996    2.111109   -1.327999
 C   -0.869554    3.340716   -1.461829
 C    3.194406    2.910067   -0.187543
 C    4.147417    3.918101    0.027988
 C    5.417272    3.478075    0.418943
 N    5.749163    2.203617    0.606389
 C    4.764824    1.303730    0.400453
 N    3.525220    1.620142    0.014322
 N    5.109906   -0.023184    0.619335
 C    4.400573   -1.268479    0.448044
 C    5.125692   -2.497908    0.413490
 C    4.382745   -3.675549    0.219288
 C    2.991442   -3.706741    0.063007
 C    2.293517   -2.496698    0.125320
 C    3.007686   -1.303515    0.316046
 N    0.880882   -2.327006   -0.018936
 C   -0.113195   -3.202563   -0.387036
 C   -1.470853   -2.599674   -0.695667
 C   -1.621243   -1.351835   -1.324522
 C   -2.891804   -0.821460   -1.550848
 C   -4.054659   -1.517603   -1.173503
 C   -3.891075   -2.783410   -0.577732
 C   -2.623029   -3.327166   -0.356513
 C   -5.437710   -0.889239   -1.348824
 N   -5.925424    0.039343   -0.311701
 C   -5.357414    1.405403   -0.245554
 C   -4.179066    1.572319    0.748652
 N   -4.474524    1.101036    2.121985
 C   -5.204713    2.029695    2.992763
 C   -4.993423   -0.286836    2.053758
 C   -6.162630   -0.485124    1.052973
 O    0.060198   -4.409422   -0.448839
 C    6.636257   -2.580557    0.549924
 H   -0.609993    5.484600   -1.355378
 H    1.752046    5.311787   -0.622214
 H    1.313826    1.015490   -0.858744
 H   -1.909111    3.384937   -1.782834
 H    3.956703    4.974676   -0.115279
 H    6.217781    4.197090    0.590580
 H    6.086026   -0.083679    0.867720
 H    4.904905   -4.630243    0.171539
 H    2.456589   -4.634916   -0.097884
 H    2.475659   -0.367366    0.364731
 H    0.567956   -1.374322    0.105683
 H   -0.741971   -0.780526   -1.612258
 H   -2.966430    0.164726   -2.008706
 H   -4.764854   -3.354466   -0.264370
 H   -2.504728   -4.301376    0.111057
 H   -5.459207   -0.345020   -2.304061
 H   -6.180615   -1.696621   -1.426880
 H   -5.135699    1.761061   -1.199337
 H   -6.508744    2.343571    0.321172
 H   -3.854798    3.018510    0.807808
 H   -3.212491    1.000748    0.367184
 H   -6.219159    2.206338    2.617959
 H   -4.676332    2.988026    3.051084
 H   -5.270436    1.621433    4.007868
 H   -5.269931   -0.631992    3.080642
 H   -3.865978   -1.140351    1.590099
 H   -7.367439    0.326137    1.652753
 H   -6.490496   -1.576454    1.008083
 H    6.970502   -2.213190    1.530599
 H    7.143565   -1.980522   -0.218638
 H    7.020100   -3.605257    0.450648
}
memory 20GB
set_num_threads(6)
psi4_io.set_default_path("/scratch/bdw2292")
set freeze_core True
E, wfn = energy('mp2/6-311++G**',return_wfn=True)
oeprop(wfn,"WIBERG_LOWDIN_INDICES")
clean()
--------------------------------------------------------------------------

    Molecular point group: c1

    Geometry (in Angstrom), charge = 0, multiplicity = 1:

       Center              X                  Y                   Z               Mass
    ------------   -----------------  -----------------  -----------------  -----------------
         C           -0.237632484997     4.526225533522    -1.200552416573    12.000000000000
         C            1.098083515003     4.412670533522    -0.790676416573    12.000000000000
         C            1.675258515003     3.139209533522    -0.615246416573    12.000000000000
         C            0.830921515003     2.038628533522    -0.905643416573    12.000000000000
         N           -0.444531484997     2.124267533522    -1.304823416573    14.003074004430
         C           -0.964089484997     3.353874533522    -1.438653416573    12.000000000000
         C            3.099870515003     2.923225533522    -0.164367416573    12.000000000000
         C            4.052881515003     3.931259533522     0.051163583427    12.000000000000
         C            5.322736515003     3.491233533522     0.442118583427    12.000000000000
         N            5.654627515003     2.216775533522     0.629564583427    14.003074004430
         C            4.670288515003     1.316888533522     0.423628583427    12.000000000000
         N            3.430684515003     1.633300533522     0.037497583427    14.003074004430
         N            5.015370515003    -0.010025466478     0.642510583427    14.003074004430
         C            4.306037515003    -1.255320466478     0.471219583427    12.000000000000
         C            5.031156515003    -2.484749466478     0.436665583427    12.000000000000
         C            4.288209515003    -3.662390466478     0.242463583427    12.000000000000
         C            2.896906515003    -3.693582466478     0.086182583427    12.000000000000
         C            2.198981515003    -2.483539466478     0.148495583427    12.000000000000
         C            2.913150515003    -1.290356466478     0.339221583427    12.000000000000
         N            0.786346515003    -2.313847466478     0.004239583427    14.003074004430
         C           -0.207730484997    -3.189404466478    -0.363860416573    12.000000000000
         C           -1.565388484997    -2.586515466478    -0.672491416573    12.000000000000
         C           -1.715778484997    -1.338676466478    -1.301346416573    12.000000000000
         C           -2.986339484997    -0.808301466478    -1.527672416573    12.000000000000
         C           -4.149194484997    -1.504444466478    -1.150327416573    12.000000000000
         C           -3.985610484997    -2.770251466478    -0.554556416573    12.000000000000
         C           -2.717564484997    -3.314007466478    -0.333337416573    12.000000000000
         C           -5.532245484997    -0.876080466478    -1.325648416573    12.000000000000
         N           -6.019959484997     0.052501533522    -0.288525416573    14.003074004430
         C           -5.451949484997     1.418561533522    -0.222378416573    12.000000000000
         C           -4.273601484997     1.585477533522     0.771827583427    12.000000000000
         N           -4.569059484997     1.114194533522     2.145160583427    14.003074004430
         C           -5.299248484997     2.042853533522     3.015938583427    12.000000000000
         C           -5.087958484997    -0.273677466478     2.076933583427    12.000000000000
         C           -6.257165484997    -0.471965466478     1.076148583427    12.000000000000
         O           -0.034337484997    -4.396263466478    -0.425663416573    15.994914619570
         C            6.541721515003    -2.567398466478     0.573099583427    12.000000000000
         H           -0.704528484997     5.497758533522    -1.332202416573     1.007825032230
         H            1.657510515003     5.324945533522    -0.599038416573     1.007825032230
         H            1.219290515003     1.028648533522    -0.835568416573     1.007825032230
         H           -2.003646484997     3.398095533522    -1.759658416573     1.007825032230
         H            3.862167515003     4.987834533522    -0.092103416573     1.007825032230
         H            6.123245515003     4.210248533522     0.613755583427     1.007825032230
         H            5.991490515003    -0.070520466478     0.890895583427     1.007825032230
         H            4.810369515003    -4.617084466478     0.194714583427     1.007825032230
         H            2.362053515003    -4.621757466478    -0.074708416573     1.007825032230
         H            2.381123515003    -0.354207466478     0.387906583427     1.007825032230
         H            0.473420515003    -1.361163466478     0.128858583427     1.007825032230
         H           -0.836506484997    -0.767367466478    -1.589082416573     1.007825032230
         H           -3.060965484997     0.177884533522    -1.985530416573     1.007825032230
         H           -4.859389484997    -3.341307466478    -0.241194416573     1.007825032230
         H           -2.599263484997    -4.288217466478     0.134232583427     1.007825032230
         H           -5.553742484997    -0.331861466478    -2.280885416573     1.007825032230
         H           -6.275150484997    -1.683462466478    -1.403704416573     1.007825032230
         H           -5.230234484997     1.774219533522    -1.176161416573     1.007825032230
         H           -6.603279484997     2.356729533522     0.344347583427     1.007825032230
         H           -3.949333484997     3.031668533522     0.830983583427     1.007825032230
         H           -3.307026484997     1.013906533522     0.390359583427     1.007825032230
         H           -6.313694484997     2.219496533522     2.641134583427     1.007825032230
         H           -4.770867484997     3.001184533522     3.074259583427     1.007825032230
         H           -5.364971484997     1.634591533522     4.031043583427     1.007825032230
         H           -5.364466484997    -0.618833466478     3.103817583427     1.007825032230
         H           -3.960513484997    -1.127192466478     1.613274583427     1.007825032230
         H           -7.461974484997     0.339295533522     1.675928583427     1.007825032230
         H           -6.585031484997    -1.563295466478     1.031258583427     1.007825032230
         H            6.875966515003    -2.200031466478     1.553774583427     1.007825032230
         H            7.049029515003    -1.967363466478    -0.195462416573     1.007825032230
         H            6.925564515003    -3.592098466478     0.473823583427     1.007825032230

  Charge       = 0
  Multiplicity = 1
  Basis Set: 6-311++G**
    Blend: 6-311++G**
  Basis Set: (6-311++G** AUX)
    Blend: AUG-CC-PVTZ-JKFIT

    Orbital Energies [Eh]
    ---------------------

    Doubly Occupied:

       1A    -20.522410     2A    -15.604398     3A    -15.601922
       4A    -15.587529     5A    -15.574718     6A    -15.574064
       7A    -15.569467     8A    -15.555451     9A    -11.376089
      10A    -11.364688    11A    -11.334849    12A    -11.314508
      13A    -11.313884    14A    -11.306039    15A    -11.304753
      16A    -11.301726    17A    -11.301602    18A    -11.301275
      19A    -11.300129    20A    -11.293009    21A    -11.289505
      22A    -11.281748    23A    -11.280700    24A    -11.265584
      25A    -11.258448    26A    -11.258206    27A    -11.254426
      28A    -11.252849    29A    -11.251319    30A    -11.247546
      31A    -11.247298    32A    -11.246797    33A    -11.244607
      34A    -11.240522    35A    -11.235652    36A    -11.230552
      37A    -11.225598    38A     -1.387178    39A     -1.344624
      40A     -1.278945    41A     -1.252224    42A     -1.247741
      43A     -1.241665    44A     -1.210034    45A     -1.201553
      46A     -1.163263    47A     -1.139993    48A     -1.116005
      49A     -1.075661    50A     -1.060961    51A     -1.048861
      52A     -1.038348    53A     -1.025251    54A     -1.008329
      55A     -1.002310    56A     -0.979349    57A     -0.947342
      58A     -0.928830    59A     -0.926671    60A     -0.901191
      61A     -0.873088    62A     -0.868083    63A     -0.858322
      64A     -0.849695    65A     -0.838480    66A     -0.835930
      67A     -0.825991    68A     -0.807108    69A     -0.778780
      70A     -0.754333    71A     -0.739941    72A     -0.731631
      73A     -0.722156    74A     -0.711049    75A     -0.699134
      76A     -0.683426    77A     -0.680993    78A     -0.668607
      79A     -0.660531    80A     -0.657644    81A     -0.652169
      82A     -0.649372    83A     -0.638006    84A     -0.630806
      85A     -0.624077    86A     -0.619298    87A     -0.613141
      88A     -0.609406    89A     -0.608793    90A     -0.604403
      91A     -0.602898    92A     -0.598738    93A     -0.596800
      94A     -0.591931    95A     -0.587795    96A     -0.581771
      97A     -0.580034    98A     -0.576452    99A     -0.567194
     100A     -0.561806   101A     -0.548147   102A     -0.544794
     103A     -0.540420   104A     -0.532118   105A     -0.527408
     106A     -0.524105   107A     -0.514830   108A     -0.509769
     109A     -0.509099   110A     -0.507027   111A     -0.496994
     112A     -0.494576   113A     -0.485097   114A     -0.481891
     115A     -0.458670   116A     -0.452233   117A     -0.443741
     118A     -0.429581   119A     -0.426734   120A     -0.421487
     121A     -0.414951   122A     -0.400621   123A     -0.394926
     124A     -0.380808   125A     -0.373961   126A     -0.347187
     127A     -0.346431   128A     -0.343375   129A     -0.315212
     130A     -0.311577   131A     -0.290683

  @DF-RHF Final Energy: -1572.33088469213021

   => Energetics <=

    Nuclear Repulsion Energy =           3791.4547177213230498
    One-Electron Energy =               -9680.8742972194522736
    Two-Electron Energy =                4317.0886948059996939
    Total Energy =                      -1572.3308846921299846

  Dipole Moment: [D]
     X:     1.1322      Y:     6.2926      Z:    -0.2999     Total:     6.4007

  Basis Set: (6-311++G** AUX)
    Blend: AUG-CC-PVTZ-RI
	 Reference Energy          =   -1572.3308846921302120 [Eh]
	 Singles Energy            =      -0.0000000000000000 [Eh]
	 Same-Spin Energy          =      -1.4719655499703914 [Eh]
	 Opposite-Spin Energy      =      -4.0493929531193249 [Eh]
	 Correlation Energy        =      -5.5213585030897168 [Eh]
	 Total Energy              =   -1577.8522431952198986 [Eh]

	 ================> DF-SCS-MP2 Energies <==================
	-----------------------------------------------------------
	 SCS Same-Spin Scale       =       0.3333333333333333 [-]
	 SCS Opposite-Spin Scale   =       1.2000000000000000 [-]
	 SCS Same-Spin Energy      =      -0.4906551833234638 [Eh]
	 SCS Opposite-Spin Energy  =      -4.8592715437431897 [Eh]
	 SCS Correlation Energy    =      -5.3499267270666540 [Eh]
	 SCS Total Energy          =   -1577.6808114191969707 [Eh]
	-----------------------------------------------------------

*** Psi4 exiting successfully. Buy a developer a beer!
