 Gaussian 09, Revision A.02,
 Gaussian 09:  EM64L-G09RevA.02 11-Jun-2009

 --------------------------------------------------
 #P opt=(,maxcycle=400) wB97XD/6-31G* MaxDisk=100GB
 --------------------------------------------------

 --------------------------------------------------------------
 MOLECULE0 Rotatable Bond Optimization on node37.bme.utexas.edu
 --------------------------------------------------------------
 Symbolic Z-matrix:
 Charge =  0 Multiplicity = 1

 SCF Done:  E(RwB97XD) =  -1581.52841670     A.U. after   16 cycles
 SCF Done:  E(RwB97XD) =  -1581.58849252     A.U. after   13 cycles
 SCF Done:  E(RwB97XD) =  -1581.68097757     A.U. after   17 cycles
 SCF Done:  E(RwB97XD) =  -1581.73592496     A.U. after   17 cycles
 SCF Done:  E(RwB97XD) =  -1581.75509117     A.U. after   16 cycles
 SCF Done:  E(RwB97XD) =  -1581.75507963     A.U. after   14 cycles
 SCF Done:  E(RwB97XD) =  -1581.75894947     A.U. after   13 cycles
 SCF Done:  E(RwB97XD) =  -1581.76031852     A.U. after   14 cycles
 SCF Done:  E(RwB97XD) =  -1581.75979545     A.U. after   14 cycles
 SCF Done:  E(RwB97XD) =  -1581.76053095     A.U. after   14 cycles
 SCF Done:  E(RwB97XD) =  -1581.76126383     A.U. after   12 cycles
 SCF Done:  E(RwB97XD) =  -1581.76120713     A.U. after   14 cycles
 SCF Done:  E(RwB97XD) =  -1581.76131210     A.U. after   13 cycles
 SCF Done:  E(RwB97XD) =  -1581.76131744     A.U. after   10 cycles
 SCF Done:  E(RwB97XD) =  -1581.76131953     A.U. after   12 cycles
 SCF Done:  E(RwB97XD) =  -1581.76132213     A.U. after   11 cycles
 SCF Done:  E(RwB97XD) =  -1581.76132312     A.U. after    8 cycles
 SCF Done:  E(RwB97XD) =  -1581.76132304     A.U. after    8 cycles
 SCF Done:  E(RwB97XD) =  -1581.76132326     A.U. after    7 cycles
 SCF Done:  E(RwB97XD) =  -1581.76132317     A.U. after    6 cycles
 Optimization completed.
    -- Stationary point found.

                         Standard orientation:
 ---------------------------------------------------------------------
 Center     Atomic      Atomic             Coordinates (Angstroms)
 Number     Number       Type             X           Y           Z
 ---------------------------------------------------------------------
      1          6           0        0.089406    4.464023   -1.500252
      2          6           0        1.418782    4.254384   -1.155166
      3          6           0        1.768691    3.082182   -0.486036
      4          6           0        0.739691    2.177367   -0.194225
      5          7           0       -0.535759    2.357908   -0.530050
      6          6           0       -0.845044    3.486797   -1.173950
      7          6           0        3.169130    2.753083   -0.118892
      8          6           0        4.157284    3.711669    0.085033
      9          6           0        5.425520    3.226711    0.401798
     10          7           0        5.713552    1.938294    0.518042
     11          6           0        4.681525    1.093210    0.315845
     12          7           0        3.434985    1.449246    0.003332
     13          7           0        5.001994   -0.229995    0.448419
     14          6           0        4.213105   -1.388416    0.333260
     15          6           0        4.827002   -2.635720    0.572565
     16          6           0        4.038825   -3.777302    0.459214
     17          6           0        2.683929   -3.745346    0.134498
     18          6           0        2.100607   -2.502599   -0.092396
     19          6           0        2.866450   -1.339941   -0.005950
     20          7           0        0.747058   -2.291324   -0.406435
     21          6           0       -0.272382   -3.192693   -0.563409
     22          6           0       -1.594429   -2.538154   -0.855135
     23          6           0       -1.705359   -1.306701   -1.508064
     24          6           0       -2.949212   -0.717695   -1.685993
     25          6           0       -4.108283   -1.329636   -1.208467
     26          6           0       -3.994614   -2.586000   -0.608071
     27          6           0       -2.754591   -3.187979   -0.434312
     28          6           0       -5.450327   -0.619970   -1.296763
     29          7           0       -5.793612    0.304237   -0.228655
     30          6           0       -5.091216    1.583084   -0.178854
     31          6           0       -3.859555    1.594918    0.743828
     32          7           0       -4.146738    1.084939    2.082497
     33          6           0       -4.893236    2.008490    2.917369
     34          6           0       -4.749176   -0.241691    1.986613
     35          6           0       -6.002616   -0.269170    1.096258
     36          8           0       -0.148233   -4.400719   -0.446059
     37          6           0        6.285447   -2.735536    0.942002
     38          1           0       -0.216429    5.362010   -2.026348
     39          1           0        2.175996    4.983643   -1.428332
     40          1           0        0.971717    1.266785    0.351272
     41          1           0       -1.892481    3.612352   -1.439791
     42          1           0        3.963358    4.775329    0.024813
     43          1           0        6.250104    3.915719    0.573671
     44          1           0        5.974131   -0.361382    0.684707
     45          1           0        4.503840   -4.743289    0.639106
     46          1           0        2.095886   -4.649917    0.066195
     47          1           0        2.414109   -0.381632   -0.208872
     48          1           0        0.473425   -1.320486   -0.406240
     49          1           0       -0.828556   -0.802958   -1.905790
     50          1           0       -3.015612    0.244490   -2.187747
     51          1           0       -4.890792   -3.091868   -0.255821
     52          1           0       -2.663365   -4.159977    0.039623
     53          1           0       -5.496817   -0.060053   -2.239003
     54          1           0       -6.245522   -1.374996   -1.340864
     55          1           0       -4.805011    1.866859   -1.198669
     56          1           0       -5.806851    2.343108    0.169845
     57          1           0       -3.467631    2.615530    0.832649
     58          1           0       -3.057282    0.984341    0.316907
     59          1           0       -5.906548    2.263664    2.559365
     60          1           0       -4.329765    2.943620    3.008511
     61          1           0       -4.996079    1.579594    3.920329
     62          1           0       -4.998455   -0.590754    2.996226
     63          1           0       -3.991834   -0.922422    1.580473
     64          1           0       -6.807328    0.296670    1.589039
     65          1           0       -6.366610   -1.296717    0.983124
     66          1           0        6.511709   -2.202572    1.875192
     67          1           0        6.940663   -2.330663    0.159100
     68          1           0        6.571401   -3.779644    1.091679
 ---------------------------------------------------------------------

 The electronic state is 1-A.
 Alpha  occ. eigenvalues --  -19.23434 -14.49326 -14.48440 -14.46515 -14.46103
 Alpha  occ. eigenvalues --  -14.45826 -14.43396 -14.42641 -10.41800 -10.40195
 Alpha  occ. eigenvalues --  -10.37605 -10.36327 -10.35189 -10.35009 -10.34670
 Alpha  occ. eigenvalues --  -10.34056 -10.34003 -10.33565 -10.32779 -10.32327
 Alpha  occ. eigenvalues --  -10.31842 -10.31122 -10.31072 -10.31024 -10.30956
 Alpha  occ. eigenvalues --  -10.30790 -10.30405 -10.30358 -10.30329 -10.30275
 Alpha  occ. eigenvalues --  -10.30268 -10.30220 -10.30038 -10.29943 -10.29544
 Alpha  occ. eigenvalues --  -10.28642 -10.28330  -1.13538  -1.12294  -1.06207
 Alpha  occ. eigenvalues --   -1.04590  -1.03694  -1.03491  -1.00700  -0.99229
 Alpha  occ. eigenvalues --   -0.96197  -0.94684  -0.93047  -0.89747  -0.88145
 Alpha  occ. eigenvalues --   -0.87345  -0.86254  -0.85145  -0.84577  -0.83774
 Alpha  occ. eigenvalues --   -0.81691  -0.79507  -0.78208  -0.77654  -0.76306
 Alpha  occ. eigenvalues --   -0.73835  -0.72962  -0.72895  -0.72599  -0.70852
 Alpha  occ. eigenvalues --   -0.70437  -0.69536  -0.68001  -0.66455  -0.65190
 Alpha  occ. eigenvalues --   -0.63503  -0.63278  -0.62277  -0.61731  -0.60197
 Alpha  occ. eigenvalues --   -0.58836  -0.57912  -0.57465  -0.56521  -0.56122
 Alpha  occ. eigenvalues --   -0.55774  -0.55120  -0.55022  -0.54567  -0.54276
 Alpha  occ. eigenvalues --   -0.53616  -0.53137  -0.53004  -0.52292  -0.52079
 Alpha  occ. eigenvalues --   -0.51902  -0.51600  -0.51262  -0.50941  -0.50570
 Alpha  occ. eigenvalues --   -0.50463  -0.50374  -0.49940  -0.49429  -0.48338
 Alpha  occ. eigenvalues --   -0.47230  -0.46770  -0.46460  -0.46271  -0.46007
 Alpha  occ. eigenvalues --   -0.45755  -0.44879  -0.44512  -0.44003  -0.43898
 Alpha  occ. eigenvalues --   -0.43447  -0.43038  -0.42159  -0.41650  -0.41249
 Alpha  occ. eigenvalues --   -0.40582  -0.40461  -0.39845  -0.38173  -0.37562
 Alpha  occ. eigenvalues --   -0.35569  -0.35306  -0.33870  -0.33510  -0.33388
 Alpha  occ. eigenvalues --   -0.32998  -0.32023  -0.30471  -0.29141  -0.26989
 Alpha  occ. eigenvalues --   -0.24645
 Alpha virt. eigenvalues --   -0.00246   0.03015   0.03276   0.04464   0.06300
 Alpha virt. eigenvalues --    0.07286   0.08380   0.10605   0.14175   0.15009
 Alpha virt. eigenvalues --    0.15501   0.16433   0.17304   0.17631   0.18452

 Mulliken atomic charges:
              1
     1  C   -0.194972
     2  C   -0.155856
     3  C    0.036896
     4  C    0.009584
     5  N   -0.425795
     6  C    0.024678
     7  C    0.296080
     8  C   -0.256492
     9  C    0.049759
    10  N   -0.495252
    11  C    0.722265
    12  N   -0.570699
    13  N   -0.811444
    14  C    0.292562
    15  C    0.118340
    16  C   -0.240666
    17  C   -0.190497
    18  C    0.366851
    19  C   -0.276401
    20  N   -0.772256
    21  C    0.599143
    22  C    0.016512
    23  C   -0.205532
    24  C   -0.213076
    25  C    0.157683
    26  C   -0.222664
    27  C   -0.178642
    28  C   -0.263173
    29  N   -0.381564
    30  C   -0.185575
    31  C   -0.181937
    32  N   -0.384820
    33  C   -0.348643
    34  C   -0.181482
    35  C   -0.186243
    36  O   -0.517261
    37  C   -0.609300
    38  H    0.185659
    39  H    0.186010
    40  H    0.196488
    41  H    0.178712
    42  H    0.181202
    43  H    0.189589
    44  H    0.370265
    45  H    0.160387
    46  H    0.213835
    47  H    0.204586
    48  H    0.364205
    49  H    0.176063
    50  H    0.164492
    51  H    0.164969
    52  H    0.199015
    53  H    0.168252
    54  H    0.168931
    55  H    0.145852
    56  H    0.157071
    57  H    0.147192
    58  H    0.185518
    59  H    0.133120
    60  H    0.165338
    61  H    0.165885
    62  H    0.151971
    63  H    0.171186
    64  H    0.159137
    65  H    0.152493
    66  H    0.181103
    67  H    0.180439
    68  H    0.190927
 Sum of Mulliken atomic charges =   0.00000

 Dipole moment (field-independent basis, Debye):
    X=              1.2723    Y=              6.3581    Z=             -0.7008  Tot=              6.5219
 Quadrupole moment (field-independent basis, Debye-Ang):
   XX=           -194.9443   YY=           -202.2148   ZZ=           -216.1919
   XY=              5.6614   XZ=              1.6477   YZ=            -12.1090

 Normal termination of Gaussian 09 at Wed Mar 25 15:09:23 2020.
