                               Psi4 1.3.2 release

  ==> Input File <==

--------------------------------------------------------------------------
molecule {
0 1
 C    0.697650    4.811428   -1.911713
 C    2.031351    4.586153   -1.543660
 C    2.456640    3.288691   -1.195354
 C    1.464753    2.279364   -1.267406
 N    0.186171    2.471926   -1.615361
 C   -0.182717    3.723552   -1.927709
 C    3.867364    2.957034   -0.772886
 C    4.943203    3.857975   -0.733330
 C    6.167553    3.322716   -0.317681
 N    6.352646    2.055349    0.040912
 C    5.260570    1.264095   -0.010696
 N    4.050839    1.675067   -0.402052
 N    5.458476   -0.052193    0.381343
 C    4.606725   -1.217052    0.407578
 C    5.190993   -2.514300    0.527609
 C    4.316215   -3.614337    0.534335
 C    2.924512   -3.506986    0.426750
 C    2.365589   -2.228958    0.324488
 C    3.213838   -1.109984    0.319651
 N    0.971940   -1.924497    0.189292
 C   -0.120870   -2.731676   -0.021066
 C   -1.458477   -2.108400   -0.391759
 C   -1.665461   -0.743652   -0.662651
 C   -2.935708   -0.265651   -0.990461
 C   -4.046644   -1.124303   -1.073028
 C   -3.829099   -2.489974   -0.812148
 C   -2.561144   -2.977200   -0.487083
 C   -5.445801   -0.584587   -1.372391
 N   -6.248243   -0.033148   -0.264787
 C   -5.900763    1.298255    0.280919
 C   -4.968077    1.266471    1.519155
 N   -5.455775    0.405140    2.621177
 C   -6.462603    0.986622    3.517292
 C   -5.753257   -0.943934    2.081085
 C   -6.666873   -0.943119    0.826897
 O   -0.041910   -3.945376    0.101912
 C    6.688139   -2.750745    0.627895
 H    0.347669    5.804449   -2.177865
 H    2.709486    5.435496   -1.523168
 H    1.726795    1.249691   -1.052545
 H   -1.226325    3.855613   -2.209273
 H    4.872665    4.900956   -1.016196
 H    7.054337    3.954264   -0.271048
 H    6.431326   -0.194360    0.608464
 H    4.728215   -4.619682    0.613091
 H    2.287062   -4.382514    0.419556
 H    2.792034   -0.121423    0.243327
 H    0.775706   -0.935248    0.178963
 H   -0.835463   -0.042614   -0.636157
 H   -3.054424    0.800334   -1.184296
 H   -4.661901   -3.191607   -0.851632
 H   -2.409278   -4.034975   -0.285930
 H   -5.359938    0.206380   -2.131614
 H   -6.042069   -1.393063   -1.820193
 H   -5.547557    1.931927   -0.477545
 H   -7.252945    1.938366    0.800624
 H   -4.862700    2.668459    2.026803
 H   -3.895996    0.909383    1.232366
 H   -7.402006    1.176178    2.985806
 H   -6.096335    1.930749    3.936036
 H   -6.661989    0.305441    4.352561
 H   -6.165040   -1.581832    2.887464
 H   -4.437799   -1.542188    1.669275
 H   -8.071018   -0.431964    1.338232
 H   -6.824986   -1.979479    0.431787
 H    7.101998   -2.308342    1.545044
 H    7.223761   -2.307771   -0.223725
 H    6.954460   -3.816711    0.644737
}
memory 20GB
set_num_threads(6)
psi4_io.set_default_path("/scratch/bdw2292")
set freeze_core True
E, wfn = energy('mp2/6-311++G**',return_wfn=True)
oeprop(wfn,"WIBERG_LOWDIN_INDICES")
clean()
--------------------------------------------------------------------------

    Molecular point group: c1

    Geometry (in Angstrom), charge = 0, multiplicity = 1:

       Center              X                  Y                   Z               Mass
    ------------   -----------------  -----------------  -----------------  -----------------
         C            0.519124007857     4.756807963270    -1.862861442758    12.000000000000
         C            1.852825007857     4.531532963270    -1.494808442758    12.000000000000
         C            2.278114007857     3.234070963270    -1.146502442758    12.000000000000
         C            1.286227007857     2.224743963270    -1.218554442758    12.000000000000
         N            0.007645007857     2.417305963270    -1.566509442758    14.003074004430
         C           -0.361242992143     3.668931963270    -1.878857442758    12.000000000000
         C            3.688838007857     2.902413963270    -0.724034442758    12.000000000000
         C            4.764677007857     3.803354963270    -0.684478442758    12.000000000000
         C            5.989027007857     3.268095963270    -0.268829442758    12.000000000000
         N            6.174120007857     2.000728963270     0.089763557242    14.003074004430
         C            5.082044007857     1.209474963270     0.038155557242    12.000000000000
         N            3.872313007857     1.620446963270    -0.353200442758    14.003074004430
         N            5.279950007857    -0.106813036730     0.430194557242    14.003074004430
         C            4.428199007857    -1.271672036730     0.456429557242    12.000000000000
         C            5.012467007857    -2.568920036730     0.576460557242    12.000000000000
         C            4.137689007857    -3.668957036730     0.583186557242    12.000000000000
         C            2.745986007857    -3.561606036730     0.475601557242    12.000000000000
         C            2.187063007857    -2.283578036730     0.373339557242    12.000000000000
         C            3.035312007857    -1.164604036730     0.368502557242    12.000000000000
         N            0.793414007857    -1.979117036730     0.238143557242    14.003074004430
         C           -0.299395992143    -2.786296036730     0.027785557242    12.000000000000
         C           -1.637002992143    -2.163020036730    -0.342907442758    12.000000000000
         C           -1.843986992143    -0.798272036730    -0.613799442758    12.000000000000
         C           -3.114233992143    -0.320271036730    -0.941609442758    12.000000000000
         C           -4.225169992143    -1.178923036730    -1.024176442758    12.000000000000
         C           -4.007624992143    -2.544594036730    -0.763296442758    12.000000000000
         C           -2.739669992143    -3.031820036730    -0.438231442758    12.000000000000
         C           -5.624326992143    -0.639207036730    -1.323539442758    12.000000000000
         N           -6.426768992143    -0.087768036730    -0.215935442758    14.003074004430
         C           -6.079288992143     1.243634963270     0.329770557242    12.000000000000
         C           -5.146602992143     1.211850963270     1.568006557242    12.000000000000
         N           -5.634300992143     0.350519963270     2.670028557242    14.003074004430
         C           -6.641128992143     0.932001963270     3.566143557242    12.000000000000
         C           -5.931782992143    -0.998554036730     2.129936557242    12.000000000000
         C           -6.845398992143    -0.997739036730     0.875748557242    12.000000000000
         O           -0.220435992143    -3.999996036730     0.150763557242    15.994914619570
         C            6.509613007857    -2.805365036730     0.676746557242    12.000000000000
         H            0.169143007857     5.749828963270    -2.129013442758     1.007825032230
         H            2.530960007857     5.380875963270    -1.474316442758     1.007825032230
         H            1.548269007857     1.195070963270    -1.003693442758     1.007825032230
         H           -1.404850992143     3.800992963270    -2.160421442758     1.007825032230
         H            4.694139007857     4.846335963270    -0.967344442758     1.007825032230
         H            6.875811007857     3.899643963270    -0.222196442758     1.007825032230
         H            6.252800007857    -0.248980036730     0.657315557242     1.007825032230
         H            4.549689007857    -4.674302036730     0.661942557242     1.007825032230
         H            2.108536007857    -4.437134036730     0.468407557242     1.007825032230
         H            2.613508007857    -0.176043036730     0.292178557242     1.007825032230
         H            0.597180007857    -0.989868036730     0.227814557242     1.007825032230
         H           -1.013988992143    -0.097234036730    -0.587305442758     1.007825032230
         H           -3.232949992143     0.745713963270    -1.135444442758     1.007825032230
         H           -4.840426992143    -3.246227036730    -0.802780442758     1.007825032230
         H           -2.587803992143    -4.089595036730    -0.237078442758     1.007825032230
         H           -5.538463992143     0.151759963270    -2.082762442758     1.007825032230
         H           -6.220594992143    -1.447683036730    -1.771341442758     1.007825032230
         H           -5.726082992143     1.877306963270    -0.428693442758     1.007825032230
         H           -7.431470992143     1.883745963270     0.849475557242     1.007825032230
         H           -5.041225992143     2.613838963270     2.075654557242     1.007825032230
         H           -4.074521992143     0.854762963270     1.281217557242     1.007825032230
         H           -7.580531992143     1.121557963270     3.034657557242     1.007825032230
         H           -6.274860992143     1.876128963270     3.984887557242     1.007825032230
         H           -6.840514992143     0.250820963270     4.401412557242     1.007825032230
         H           -6.343565992143    -1.636452036730     2.936315557242     1.007825032230
         H           -4.616324992143    -1.596808036730     1.718126557242     1.007825032230
         H           -8.249543992143    -0.486584036730     1.387083557242     1.007825032230
         H           -7.003511992143    -2.034099036730     0.480638557242     1.007825032230
         H            6.923472007857    -2.362962036730     1.593895557242     1.007825032230
         H            7.045235007857    -2.362391036730    -0.174873442758     1.007825032230
         H            6.775934007857    -3.871331036730     0.693588557242     1.007825032230

  Charge       = 0
  Multiplicity = 1
  Basis Set: 6-311++G**
    Blend: 6-311++G**
  Basis Set: (6-311++G** AUX)
    Blend: AUG-CC-PVTZ-JKFIT

    Orbital Energies [Eh]
    ---------------------

    Doubly Occupied:

       1A    -20.519520     2A    -15.604348     3A    -15.601985
       4A    -15.588693     5A    -15.574959     6A    -15.573563
       7A    -15.569972     8A    -15.554212     9A    -11.376268
      10A    -11.365795    11A    -11.335321    12A    -11.314830
      13A    -11.311800    14A    -11.303979    15A    -11.303414
      16A    -11.302599    17A    -11.302004    18A    -11.301627
      19A    -11.299054    20A    -11.293716    21A    -11.290475
      22A    -11.281860    23A    -11.281645    24A    -11.266739
      25A    -11.259701    26A    -11.259622    27A    -11.257648
      28A    -11.253183    29A    -11.249639    30A    -11.247335
      31A    -11.247207    32A    -11.245696    33A    -11.243191
      34A    -11.239871    35A    -11.235465    36A    -11.231053
      37A    -11.224812    38A     -1.386945    39A     -1.345022
      40A     -1.280013    41A     -1.250736    42A     -1.247203
      43A     -1.241283    44A     -1.210440    45A     -1.200739
      46A     -1.162836    47A     -1.139887    48A     -1.116855
      49A     -1.076175    50A     -1.060260    51A     -1.049624
      52A     -1.038562    53A     -1.024942    54A     -1.008161
      55A     -1.002146    56A     -0.978823    57A     -0.946732
      58A     -0.928787    59A     -0.927355    60A     -0.901588
      61A     -0.873756    62A     -0.867609    63A     -0.858933
      64A     -0.849355    65A     -0.838551    66A     -0.836406
      67A     -0.825989    68A     -0.807146    69A     -0.779003
      70A     -0.755204    71A     -0.741987    72A     -0.732131
      73A     -0.722906    74A     -0.711992    75A     -0.699304
      76A     -0.684161    77A     -0.680893    78A     -0.669260
      79A     -0.660562    80A     -0.657331    81A     -0.652145
      82A     -0.647433    83A     -0.636194    84A     -0.631762
      85A     -0.623478    86A     -0.618509    87A     -0.611988
      88A     -0.609453    89A     -0.609145    90A     -0.604784
      91A     -0.602386    92A     -0.599495    93A     -0.597373
      94A     -0.593013    95A     -0.588886    96A     -0.581366
      97A     -0.579419    98A     -0.578852    99A     -0.566710
     100A     -0.562718   101A     -0.547989   102A     -0.545442
     103A     -0.541778   104A     -0.531593   105A     -0.527093
     106A     -0.523920   107A     -0.514104   108A     -0.510194
     109A     -0.507962   110A     -0.505716   111A     -0.496393
     112A     -0.492248   113A     -0.485340   114A     -0.481779
     115A     -0.456551   116A     -0.452921   117A     -0.444323
     118A     -0.428653   119A     -0.426451   120A     -0.420511
     121A     -0.415497   122A     -0.401398   123A     -0.393807
     124A     -0.379810   125A     -0.374483   126A     -0.348488
     127A     -0.346874   128A     -0.342706   129A     -0.315145
     130A     -0.310796   131A     -0.290045

  @DF-RHF Final Energy: -1572.32888059614675

   => Energetics <=

    Nuclear Repulsion Energy =           3710.2619138902859959
    One-Electron Energy =               -9518.4905781749184825
    Two-Electron Energy =                4235.8997836884855133
    Total Energy =                      -1572.3288805961465187

  Dipole Moment: [D]
     X:     1.9695      Y:     6.1420      Z:    -1.7700     Total:     6.6885

  Basis Set: (6-311++G** AUX)
    Blend: AUG-CC-PVTZ-RI
	 Reference Energy          =   -1572.3288805961467460 [Eh]
	 Singles Energy            =      -0.0000000000000000 [Eh]
	 Same-Spin Energy          =      -1.4699908142940801 [Eh]
	 Opposite-Spin Energy      =      -4.0464930791795819 [Eh]
	 Correlation Energy        =      -5.5164838934736622 [Eh]
	 Total Energy              =   -1577.8453644896203514 [Eh]

	 ================> DF-SCS-MP2 Energies <==================
	-----------------------------------------------------------
	 SCS Same-Spin Scale       =       0.3333333333333333 [-]
	 SCS Opposite-Spin Scale   =       1.2000000000000000 [-]
	 SCS Same-Spin Energy      =      -0.4899969380980267 [Eh]
	 SCS Opposite-Spin Energy  =      -4.8557916950154985 [Eh]
	 SCS Correlation Energy    =      -5.3457886331135249 [Eh]
	 SCS Total Energy          =   -1577.6746692292601892 [Eh]
	-----------------------------------------------------------

*** Psi4 exiting successfully. Buy a developer a beer!
