 Gaussian 09, Revision A.02,
 Gaussian 09:  EM64L-G09RevA.02 11-Jun-2009

 --------------------------------------------------
 #P opt=(,maxcycle=400) wB97XD/6-31G* MaxDisk=100GB
 --------------------------------------------------

 --------------------------------------------------------------
 MOLECULE0 Rotatable Bond Optimization on node37.bme.utexas.edu
 --------------------------------------------------------------
 Symbolic Z-matrix:
 Charge =  0 Multiplicity = 1

 SCF Done:  E(RwB97XD) =  -1581.48445499     A.U. after   16 cycles
 SCF Done:  E(RwB97XD) =  -1581.54937469     A.U. after   13 cycles
 SCF Done:  E(RwB97XD) =  -1581.65708174     A.U. after   14 cycles
 SCF Done:  E(RwB97XD) =  -1581.71690306     A.U. after   14 cycles
 SCF Done:  E(RwB97XD) =  -1581.74393126     A.U. after   17 cycles
 SCF Done:  E(RwB97XD) =  -1581.74882767     A.U. after   17 cycles
 SCF Done:  E(RwB97XD) =  -1581.74529885     A.U. after   17 cycles
 SCF Done:  E(RwB97XD) =  -1581.75272952     A.U. after   14 cycles
 SCF Done:  E(RwB97XD) =  -1581.75676297     A.U. after   14 cycles
 SCF Done:  E(RwB97XD) =  -1581.74900494     A.U. after   17 cycles
 SCF Done:  E(RwB97XD) =  -1581.76091126     A.U. after   12 cycles
 SCF Done:  E(RwB97XD) =  -1581.76091140     A.U. after   12 cycles
 SCF Done:  E(RwB97XD) =  -1581.76091194     A.U. after   12 cycles
 SCF Done:  E(RwB97XD) =  -1581.76091156     A.U. after   12 cycles
 SCF Done:  E(RwB97XD) =  -1581.76091348     A.U. after    9 cycles
 SCF Done:  E(RwB97XD) =  -1581.76091315     A.U. after   12 cycles
 SCF Done:  E(RwB97XD) =  -1581.76091466     A.U. after   11 cycles
 SCF Done:  E(RwB97XD) =  -1581.76091490     A.U. after    9 cycles
 SCF Done:  E(RwB97XD) =  -1581.76091500     A.U. after    6 cycles
 SCF Done:  E(RwB97XD) =  -1581.76091509     A.U. after    6 cycles
 Optimization completed.
    -- Stationary point found.

                         Standard orientation:
 ---------------------------------------------------------------------
 Center     Atomic      Atomic             Coordinates (Angstroms)
 Number     Number       Type             X           Y           Z
 ---------------------------------------------------------------------
      1          6           0        7.447087    1.882812    0.723146
      2          6           0        6.886439    0.632068    0.942883
      3          6           0        5.748474    0.264358    0.224935
      4          6           0        5.230890    1.192267   -0.686586
      5          7           0        5.759732    2.393581   -0.909599
      6          6           0        6.848124    2.723730   -0.209748
      7          6           0        5.088687   -1.050636    0.402392
      8          6           0        5.776016   -2.182410    0.835560
      9          6           0        5.027418   -3.349173    0.959043
     10          7           0        3.734022   -3.420659    0.678906
     11          6           0        3.169563   -2.272799    0.250964
     12          7           0        3.783952   -1.098221    0.108639
     13          7           0        1.840576   -2.393474   -0.049801
     14          6           0        0.908005   -1.466945   -0.542198
     15          6           0       -0.317226   -1.979192   -1.016519
     16          6           0       -1.256053   -1.085043   -1.521408
     17          6           0       -1.022538    0.282690   -1.553801
     18          6           0        0.159126    0.782387   -1.014783
     19          6           0        1.128075   -0.087004   -0.520008
     20          7           0        0.391040    2.180902   -0.930868
     21          6           0       -0.515153    3.157697   -0.583214
     22          6           0       -1.744895    2.698009    0.143780
     23          6           0       -1.683280    1.776680    1.191053
     24          6           0       -2.850896    1.321015    1.784433
     25          6           0       -4.101224    1.742606    1.325600
     26          6           0       -4.148781    2.715533    0.326194
     27          6           0       -2.981245    3.201789   -0.253055
     28          6           0       -5.375528    1.105250    1.854890
     29          7           0       -5.804661   -0.139826    1.235723
     30          6           0       -5.079857   -1.360906    1.566658
     31          6           0       -3.972672   -1.730427    0.563703
     32          7           0       -4.437551   -1.743252   -0.822945
     33          6           0       -5.260323   -2.892971   -1.159083
     34          6           0       -5.059155   -0.457317   -1.138418
     35          6           0       -6.192476   -0.084529   -0.167860
     36          8           0       -0.314158    4.331563   -0.843092
     37          6           0       -0.625544   -3.454917   -0.982469
     38          1           0        8.326518    2.206678    1.269470
     39          1           0        7.314914   -0.038516    1.682298
     40          1           0        4.347632    0.933000   -1.264670
     41          1           0        7.258921    3.712030   -0.403424
     42          1           0        6.838794   -2.174116    1.042437
     43          1           0        5.493932   -4.272863    1.295644
     44          1           0        1.519703   -3.343669    0.060797
     45          1           0       -2.213298   -1.468081   -1.866986
     46          1           0       -1.767788    0.956363   -1.961348
     47          1           0        2.042648    0.306790   -0.099690
     48          1           0        1.251946    2.546527   -1.317354
     49          1           0       -0.721907    1.398832    1.525323
     50          1           0       -2.794000    0.597826    2.594819
     51          1           0       -5.112652    3.086702   -0.015143
     52          1           0       -3.018669    3.954379   -1.034537
     53          1           0       -5.264193    0.910937    2.928462
     54          1           0       -6.199678    1.822389    1.749492
     55          1           0       -4.656889   -1.260803    2.572473
     56          1           0       -5.809048   -2.184048    1.611993
     57          1           0       -3.559557   -2.717553    0.805800
     58          1           0       -3.152340   -1.006732    0.624586
     59          1           0       -6.215236   -2.968374   -0.611670
     60          1           0       -4.692214   -3.808713   -0.961279
     61          1           0       -5.491708   -2.865087   -2.229417
     62          1           0       -5.439970   -0.491906   -2.166367
     63          1           0       -4.273933    0.307177   -1.097742
     64          1           0       -7.035170   -0.776118   -0.317894
     65          1           0       -6.566791    0.919947   -0.393769
     66          1           0       -0.618685   -3.855600    0.040643
     67          1           0        0.088422   -4.042191   -1.574289
     68          1           0       -1.622578   -3.638779   -1.390824
 ---------------------------------------------------------------------

 The electronic state is 1-A.
 Alpha  occ. eigenvalues --  -19.22918 -14.49159 -14.47485 -14.45837 -14.45644
 Alpha  occ. eigenvalues --  -14.45485 -14.44065 -14.43828 -10.41567 -10.39773
 Alpha  occ. eigenvalues --  -10.37235 -10.36048 -10.34933 -10.34314 -10.34135
 Alpha  occ. eigenvalues --  -10.33945 -10.33323 -10.32779 -10.32548 -10.31981
 Alpha  occ. eigenvalues --  -10.31682 -10.31591 -10.31480 -10.31324 -10.31154
 Alpha  occ. eigenvalues --  -10.31029 -10.30795 -10.30725 -10.30705 -10.30544
 Alpha  occ. eigenvalues --  -10.30415 -10.30229 -10.30198 -10.30172 -10.29253
 Alpha  occ. eigenvalues --  -10.29230 -10.29088  -1.13111  -1.12095  -1.05364
 Alpha  occ. eigenvalues --   -1.04398  -1.04269  -1.02733  -1.00413  -1.00023
 Alpha  occ. eigenvalues --   -0.96006  -0.94711  -0.92488  -0.89223  -0.87527
 Alpha  occ. eigenvalues --   -0.86963  -0.86556  -0.85732  -0.84659  -0.83853
 Alpha  occ. eigenvalues --   -0.82191  -0.79255  -0.78423  -0.77695  -0.76112
 Alpha  occ. eigenvalues --   -0.73687  -0.73389  -0.73044  -0.72205  -0.70679
 Alpha  occ. eigenvalues --   -0.70177  -0.69189  -0.68730  -0.66202  -0.64679
 Alpha  occ. eigenvalues --   -0.64160  -0.63967  -0.61621  -0.60703  -0.59865
 Alpha  occ. eigenvalues --   -0.58619  -0.57954  -0.57125  -0.56731  -0.56090
 Alpha  occ. eigenvalues --   -0.55569  -0.55490  -0.55233  -0.54877  -0.54494
 Alpha  occ. eigenvalues --   -0.54199  -0.53854  -0.53292  -0.53139  -0.51933
 Alpha  occ. eigenvalues --   -0.51766  -0.51417  -0.51169  -0.50641  -0.50456
 Alpha  occ. eigenvalues --   -0.50104  -0.49758  -0.49366  -0.48955  -0.47950
 Alpha  occ. eigenvalues --   -0.47670  -0.47149  -0.46683  -0.46584  -0.45907
 Alpha  occ. eigenvalues --   -0.45683  -0.45501  -0.45074  -0.44286  -0.43729
 Alpha  occ. eigenvalues --   -0.43307  -0.42807  -0.42183  -0.41724  -0.41341
 Alpha  occ. eigenvalues --   -0.41301  -0.41086  -0.39958  -0.37345  -0.36411
 Alpha  occ. eigenvalues --   -0.34968  -0.34787  -0.33577  -0.33399  -0.33056
 Alpha  occ. eigenvalues --   -0.32667  -0.31808  -0.31026  -0.29892  -0.27275
 Alpha  occ. eigenvalues --   -0.25485
 Alpha virt. eigenvalues --    0.00278   0.03633   0.04016   0.04720   0.06283
 Alpha virt. eigenvalues --    0.07730   0.07753   0.10318   0.13503   0.14533
 Alpha virt. eigenvalues --    0.16116   0.16917   0.17631   0.17818   0.18497

 Mulliken atomic charges:
              1
     1  C   -0.195529
     2  C   -0.157382
     3  C    0.035150
     4  C    0.008143
     5  N   -0.420627
     6  C    0.026046
     7  C    0.288053
     8  C   -0.252870
     9  C    0.049782
    10  N   -0.497422
    11  C    0.709616
    12  N   -0.560510
    13  N   -0.802613
    14  C    0.293863
    15  C    0.104012
    16  C   -0.233863
    17  C   -0.173743
    18  C    0.274377
    19  C   -0.226125
    20  N   -0.719717
    21  C    0.531321
    22  C    0.018612
    23  C   -0.162780
    24  C   -0.221070
    25  C    0.155345
    26  C   -0.223332
    27  C   -0.182959
    28  C   -0.264796
    29  N   -0.381739
    30  C   -0.183409
    31  C   -0.182488
    32  N   -0.392335
    33  C   -0.351251
    34  C   -0.183172
    35  C   -0.185172
    36  O   -0.501943
    37  C   -0.610879
    38  H    0.182801
    39  H    0.182602
    40  H    0.196345
    41  H    0.183068
    42  H    0.180747
    43  H    0.188110
    44  H    0.369605
    45  H    0.194217
    46  H    0.169920
    47  H    0.207907
    48  H    0.364683
    49  H    0.184762
    50  H    0.161626
    51  H    0.162481
    52  H    0.192882
    53  H    0.170449
    54  H    0.169583
    55  H    0.154724
    56  H    0.158953
    57  H    0.148890
    58  H    0.174405
    59  H    0.141367
    60  H    0.164700
    61  H    0.169101
    62  H    0.154433
    63  H    0.170235
    64  H    0.160000
    65  H    0.157340
    66  H    0.174702
    67  H    0.184501
    68  H    0.198267
 Sum of Mulliken atomic charges =   0.00000

 Dipole moment (field-independent basis, Debye):
    X=              1.3185    Y=             -5.2667    Z=              2.0724  Tot=              5.8113
 Quadrupole moment (field-independent basis, Debye-Ang):
   XX=           -167.9998   YY=           -227.6464   ZZ=           -213.8057
   XY=             -1.7188   XZ=             17.3870   YZ=              2.1668

 Normal termination of Gaussian 09 at Wed Mar  4 09:04:41 2020.
