                               Psi4 1.3.2 release

  ==> Input File <==

--------------------------------------------------------------------------
molecule {
0 1
 C    2.221710    4.663924   -0.429312
 C    3.236021    3.764763   -0.786407
 C    3.093129    2.392105   -0.500431
 C    1.888841    2.021438    0.144950
 N    0.907886    2.863399    0.490570
 C    1.080146    4.162715    0.206268
 C    4.124429    1.349998   -0.854480
 C    5.332910    1.600106   -1.524460
 C    6.132749    0.479907   -1.772825
 N    5.817917   -0.761411   -1.415678
 C    4.643068   -0.906648   -0.767171
 N    3.806919    0.093963   -0.480032
 N    4.330882   -2.205409   -0.405451
 C    3.199913   -2.816670    0.241013
 C    2.970746   -4.213785    0.048622
 C    1.866379   -4.780937    0.704823
 C    0.993176   -4.059340    1.525653
 C    1.227926   -2.691009    1.693201
 C    2.329569   -2.089968    1.064827
 N    0.443415   -1.833075    2.499969
 C   -0.919591   -1.776616    2.635399
 C   -1.720054   -1.440146    1.395579
 C   -1.246691   -0.581870    0.390710
 C   -2.042890   -0.278897   -0.715334
 C   -3.342726   -0.802270   -0.848142
 C   -3.813763   -1.643297    0.178395
 C   -3.025391   -1.947042    1.290539
 C   -4.225201   -0.440076   -2.043476
 N   -5.090690    0.749309   -1.966928
 C   -4.468581    2.091212   -1.980919
 C   -4.248172    2.754668   -0.597388
 N   -5.459671    2.773438    0.256207
 C   -6.420930    3.854531    0.001536
 C   -6.017424    1.402017    0.334890
 C   -6.247708    0.729921   -1.043905
 O   -1.472105   -1.960329    3.706410
 C    3.849116   -5.095167   -0.823510
 H    2.310936    5.725696   -0.638596
 H    4.120483    4.158466   -1.281018
 H    1.708743    0.979458    0.383947
 H    0.267534    4.825142    0.500060
 H    5.652047    2.580392   -1.856143
 H    7.083184    0.588315   -2.294683
 H    5.043027   -2.830547   -0.752599
 H    1.665072   -5.844935    0.584639
 H    0.160622   -4.543554    2.022910
 H    2.521510   -1.037115    1.211309
 H    0.881404   -1.205961    3.159746
 H   -0.259975   -0.142183    0.487433
 H   -1.645459    0.395226   -1.473976
 H   -4.821773   -2.054447    0.126733
 H   -3.406192   -2.575548    2.091734
 H   -3.578969   -0.306838   -2.923031
 H   -4.880747   -1.296406   -2.259519
 H   -3.305226    2.058379   -2.652953
 H   -5.431018    3.034498   -2.758033
 H   -3.855376    3.743874   -0.685393
 H   -3.235114    1.949190    0.121406
 H   -6.870864    3.754155   -0.992722
 H   -5.920726    4.827669    0.065859
 H   -7.218132    3.835661    0.753574
 H   -6.941278    1.415157    0.941159
 H   -5.019003    0.574660    1.069582
 H   -7.390808    1.553825   -1.725049
 H   -6.650747   -0.374753   -0.912154
 H    4.856866   -5.201129   -0.397861
 H    3.959893   -4.679906   -1.835245
 H    3.449557   -6.111263   -0.946777
}
memory 20GB
set_num_threads(6)
psi4_io.set_default_path("/scratch/bdw2292")
set freeze_core True
E, wfn = energy('mp2/6-311++G**',return_wfn=True)
oeprop(wfn,"WIBERG_LOWDIN_INDICES")
clean()
--------------------------------------------------------------------------

    Molecular point group: c1

    Geometry (in Angstrom), charge = 0, multiplicity = 1:

       Center              X                  Y                   Z               Mass
    ------------   -----------------  -----------------  -----------------  -----------------
         C            2.198533516799     4.768388700235    -0.425336755158    12.000000000000
         C            3.212844516799     3.869227700235    -0.782431755158    12.000000000000
         C            3.069952516799     2.496569700235    -0.496455755158    12.000000000000
         C            1.865664516799     2.125902700235     0.148925244842    12.000000000000
         N            0.884709516799     2.967863700235     0.494545244842    14.003074004430
         C            1.056969516799     4.267179700235     0.210243244842    12.000000000000
         C            4.101252516799     1.454462700235    -0.850504755158    12.000000000000
         C            5.309733516799     1.704570700235    -1.520484755158    12.000000000000
         C            6.109572516799     0.584371700235    -1.768849755158    12.000000000000
         N            5.794740516799    -0.656946299765    -1.411702755158    14.003074004430
         C            4.619891516799    -0.802183299765    -0.763195755158    12.000000000000
         N            3.783742516799     0.198427700235    -0.476056755158    14.003074004430
         N            4.307705516799    -2.100944299765    -0.401475755158    14.003074004430
         C            3.176736516799    -2.712205299765     0.244988244842    12.000000000000
         C            2.947569516799    -4.109320299765     0.052597244842    12.000000000000
         C            1.843202516799    -4.676472299765     0.708798244842    12.000000000000
         C            0.969999516799    -3.954875299765     1.529628244842    12.000000000000
         C            1.204749516799    -2.586544299765     1.697176244842    12.000000000000
         C            2.306392516799    -1.985503299765     1.068802244842    12.000000000000
         N            0.420238516799    -1.728610299765     2.503944244842    14.003074004430
         C           -0.942767483201    -1.672151299765     2.639374244842    12.000000000000
         C           -1.743230483201    -1.335681299765     1.399554244842    12.000000000000
         C           -1.269867483201    -0.477405299765     0.394685244842    12.000000000000
         C           -2.066066483201    -0.174432299765    -0.711358755158    12.000000000000
         C           -3.365902483201    -0.697805299765    -0.844166755158    12.000000000000
         C           -3.836939483201    -1.538832299765     0.182370244842    12.000000000000
         C           -3.048567483201    -1.842577299765     1.294514244842    12.000000000000
         C           -4.248377483201    -0.335611299765    -2.039500755158    12.000000000000
         N           -5.113866483201     0.853773700235    -1.962952755158    14.003074004430
         C           -4.491757483201     2.195676700235    -1.976943755158    12.000000000000
         C           -4.271348483201     2.859132700235    -0.593412755158    12.000000000000
         N           -5.482847483201     2.877902700235     0.260182244842    14.003074004430
         C           -6.444106483201     3.958995700235     0.005511244842    12.000000000000
         C           -6.040600483201     1.506481700235     0.338865244842    12.000000000000
         C           -6.270884483201     0.834385700235    -1.039929755158    12.000000000000
         O           -1.495281483201    -1.855864299765     3.710385244842    15.994914619570
         C            3.825939516799    -4.990702299765    -0.819534755158    12.000000000000
         H            2.287759516799     5.830160700235    -0.634620755158     1.007825032230
         H            4.097306516799     4.262930700235    -1.277042755158     1.007825032230
         H            1.685566516799     1.083922700235     0.387922244842     1.007825032230
         H            0.244357516799     4.929606700235     0.504035244842     1.007825032230
         H            5.628870516799     2.684856700235    -1.852167755158     1.007825032230
         H            7.060007516799     0.692779700235    -2.290707755158     1.007825032230
         H            5.019850516799    -2.726082299765    -0.748623755158     1.007825032230
         H            1.641895516799    -5.740470299765     0.588614244842     1.007825032230
         H            0.137445516799    -4.439089299765     2.026885244842     1.007825032230
         H            2.498333516799    -0.932650299765     1.215284244842     1.007825032230
         H            0.858227516799    -1.101496299765     3.163721244842     1.007825032230
         H           -0.283151483201    -0.037718299765     0.491408244842     1.007825032230
         H           -1.668635483201     0.499690700235    -1.470000755158     1.007825032230
         H           -4.844949483201    -1.949982299765     0.130708244842     1.007825032230
         H           -3.429368483201    -2.471083299765     2.095709244842     1.007825032230
         H           -3.602145483201    -0.202373299765    -2.919055755158     1.007825032230
         H           -4.903923483201    -1.191941299765    -2.255543755158     1.007825032230
         H           -3.328402483201     2.162843700235    -2.648977755158     1.007825032230
         H           -5.454194483201     3.138962700235    -2.754057755158     1.007825032230
         H           -3.878552483201     3.848338700235    -0.681417755158     1.007825032230
         H           -3.258290483201     2.053654700235     0.125381244842     1.007825032230
         H           -6.894040483201     3.858619700235    -0.988746755158     1.007825032230
         H           -5.943902483201     4.932133700235     0.069834244842     1.007825032230
         H           -7.241308483201     3.940125700235     0.757549244842     1.007825032230
         H           -6.964454483201     1.519621700235     0.945134244842     1.007825032230
         H           -5.042179483201     0.679124700235     1.073557244842     1.007825032230
         H           -7.413984483201     1.658289700235    -1.721073755158     1.007825032230
         H           -6.673923483201    -0.270288299765    -0.908178755158     1.007825032230
         H            4.833689516799    -5.096664299765    -0.393885755158     1.007825032230
         H            3.936716516799    -4.575441299765    -1.831269755158     1.007825032230
         H            3.426380516799    -6.006798299765    -0.942801755158     1.007825032230

  Charge       = 0
  Multiplicity = 1
  Basis Set: 6-311++G**
    Blend: 6-311++G**
  Basis Set: (6-311++G** AUX)
    Blend: AUG-CC-PVTZ-JKFIT

    Orbital Energies [Eh]
    ---------------------

    Doubly Occupied:

       1A    -20.537490     2A    -15.604306     3A    -15.581238
       4A    -15.573840     5A    -15.573710     6A    -15.571129
       7A    -15.569327     8A    -15.552470     9A    -11.375330
      10A    -11.361543    11A    -11.333625    12A    -11.328254
      13A    -11.315403    14A    -11.313670    15A    -11.304253
      16A    -11.296482    17A    -11.295328    18A    -11.292913
      19A    -11.291865    20A    -11.287327    21A    -11.286087
      22A    -11.276523    23A    -11.275442    24A    -11.261742
      25A    -11.253686    26A    -11.252838    27A    -11.251376
      28A    -11.248030    29A    -11.246823    30A    -11.246340
      31A    -11.246117    32A    -11.244505    33A    -11.240012
      34A    -11.239857    35A    -11.239700    36A    -11.236609
      37A    -11.234162    38A     -1.393989    39A     -1.345158
      40A     -1.273932    41A     -1.250764    42A     -1.242970
      43A     -1.241310    44A     -1.209348    45A     -1.198507
      46A     -1.156180    47A     -1.142398    48A     -1.113045
      49A     -1.073850    50A     -1.053544    51A     -1.046534
      52A     -1.040289    53A     -1.018520    54A     -1.012661
      55A     -0.993720    56A     -0.973824    57A     -0.946230
      58A     -0.928376    59A     -0.924561    60A     -0.901435
      61A     -0.870667    62A     -0.863077    63A     -0.856119
      64A     -0.840091    65A     -0.836162    66A     -0.827548
      67A     -0.823962    68A     -0.812237    69A     -0.775145
      70A     -0.751654    71A     -0.746654    72A     -0.725086
      73A     -0.710383    74A     -0.706678    75A     -0.694677
      76A     -0.682080    77A     -0.668864    78A     -0.665260
      79A     -0.659662    80A     -0.658048    81A     -0.654107
      82A     -0.645513    83A     -0.639591    84A     -0.633608
      85A     -0.627544    86A     -0.617731    87A     -0.615103
      88A     -0.612799    89A     -0.606944    90A     -0.604455
      91A     -0.602171    92A     -0.597331    93A     -0.592397
      94A     -0.588482    95A     -0.585479    96A     -0.584817
      97A     -0.570546    98A     -0.567474    99A     -0.558043
     100A     -0.556365   101A     -0.541007   102A     -0.538476
     103A     -0.532659   104A     -0.523692   105A     -0.523331
     106A     -0.518630   107A     -0.515952   108A     -0.511687
     109A     -0.500229   110A     -0.495632   111A     -0.494401
     112A     -0.488753   113A     -0.486237   114A     -0.478678
     115A     -0.466190   116A     -0.451005   117A     -0.437701
     118A     -0.437142   119A     -0.425179   120A     -0.418071
     121A     -0.413808   122A     -0.397197   123A     -0.383771
     124A     -0.375975   125A     -0.373474   126A     -0.344647
     127A     -0.340142   128A     -0.335084   129A     -0.320282
     130A     -0.306745   131A     -0.297551

  @DF-RHF Final Energy: -1572.29175479578885

   => Energetics <=

    Nuclear Repulsion Energy =           3791.5502290831509526
    One-Electron Energy =               -9681.6272333173928928
    Two-Electron Energy =                4317.7852494384533202
    Total Energy =                      -1572.2917547957886200

  Dipole Moment: [D]
     X:     4.2488      Y:     2.3286      Z:    -4.3159     Total:     6.4886

  Basis Set: (6-311++G** AUX)
    Blend: AUG-CC-PVTZ-RI
	 Reference Energy          =   -1572.2917547957888473 [Eh]
	 Singles Energy            =      -0.0000000000000000 [Eh]
	 Same-Spin Energy          =      -1.4727407687011547 [Eh]
	 Opposite-Spin Energy      =      -4.0522185372024371 [Eh]
	 Correlation Energy        =      -5.5249593059035913 [Eh]
	 Total Energy              =   -1577.8167141016924688 [Eh]

	 ================> DF-SCS-MP2 Energies <==================
	-----------------------------------------------------------
	 SCS Same-Spin Scale       =       0.3333333333333333 [-]
	 SCS Opposite-Spin Scale   =       1.2000000000000000 [-]
	 SCS Same-Spin Energy      =      -0.4909135895670516 [Eh]
	 SCS Opposite-Spin Energy  =      -4.8626622446429240 [Eh]
	 SCS Correlation Energy    =      -5.3535758342099751 [Eh]
	 SCS Total Energy          =   -1577.6453306299988526 [Eh]
	-----------------------------------------------------------

*** Psi4 exiting successfully. Buy a developer a beer!
