 Gaussian 09, Revision A.02,
 Gaussian 09:  EM64L-G09RevA.02 11-Jun-2009

 --------------------------------------------------
 #P opt=(,maxcycle=400) wB97XD/6-31G* MaxDisk=100GB
 --------------------------------------------------

 -----------------------------------------------------------------
 MOLECULE0 Rotatable Bond Optimization on g2-node38.bme.utexas.edu
 -----------------------------------------------------------------
 Symbolic Z-matrix:
 Charge =  0 Multiplicity = 1

 SCF Done:  E(RwB97XD) =  -1581.44178820     A.U. after   16 cycles
 SCF Done:  E(RwB97XD) =  -1581.51261974     A.U. after   13 cycles
 SCF Done:  E(RwB97XD) =  -1581.62877606     A.U. after   14 cycles
 SCF Done:  E(RwB97XD) =  -1581.69826477     A.U. after   15 cycles
 SCF Done:  E(RwB97XD) =  -1581.72121799     A.U. after   17 cycles
 SCF Done:  E(RwB97XD) =  -1581.71855202     A.U. after   16 cycles
 SCF Done:  E(RwB97XD) =  -1581.73388338     A.U. after   14 cycles
 SCF Done:  E(RwB97XD) =  -1581.74813422     A.U. after   14 cycles
 SCF Done:  E(RwB97XD) =  -1581.75343643     A.U. after   14 cycles
 SCF Done:  E(RwB97XD) =  -1581.75589146     A.U. after   16 cycles
 SCF Done:  E(RwB97XD) =  -1581.76160495     A.U. after   12 cycles
 SCF Done:  E(RwB97XD) =  -1581.76162615     A.U. after   12 cycles
 SCF Done:  E(RwB97XD) =  -1581.76163156     A.U. after   11 cycles
 SCF Done:  E(RwB97XD) =  -1581.76163319     A.U. after   11 cycles
 SCF Done:  E(RwB97XD) =  -1581.76163344     A.U. after   10 cycles
 SCF Done:  E(RwB97XD) =  -1581.76163400     A.U. after    7 cycles
 SCF Done:  E(RwB97XD) =  -1581.76163403     A.U. after    7 cycles
 SCF Done:  E(RwB97XD) =  -1581.76163410     A.U. after    7 cycles
 SCF Done:  E(RwB97XD) =  -1581.76163405     A.U. after    7 cycles
 SCF Done:  E(RwB97XD) =  -1581.76163408     A.U. after    6 cycles
 Optimization completed.
    -- Stationary point found.

                         Standard orientation:
 ---------------------------------------------------------------------
 Center     Atomic      Atomic             Coordinates (Angstroms)
 Number     Number       Type             X           Y           Z
 ---------------------------------------------------------------------
      1          6           0       -1.226482    4.806883   -0.670975
      2          6           0       -2.527534    4.351218   -0.496420
      3          6           0       -2.732613    3.055580   -0.025382
      4          6           0       -1.597188    2.284395    0.257139
      5          7           0       -0.345084    2.703841    0.085071
      6          6           0       -0.174235    3.946447   -0.376634
      7          6           0       -4.080850    2.457821    0.141278
      8          6           0       -5.243660    3.198574    0.334015
      9          6           0       -6.425337    2.465971    0.440414
     10          7           0       -6.481103    1.142212    0.383089
     11          6           0       -5.295149    0.522037    0.217142
     12          7           0       -4.114163    1.124358    0.084982
     13          7           0       -5.362158   -0.843460    0.183904
     14          6           0       -4.331945   -1.801229    0.128813
     15          6           0       -4.639641   -3.127459    0.493558
     16          6           0       -3.610159   -4.063031    0.456910
     17          6           0       -2.302260   -3.748540    0.095253
     18          6           0       -2.023470   -2.433476   -0.267905
     19          6           0       -3.040411   -1.478257   -0.273155
     20          7           0       -0.751139   -1.955843   -0.630079
     21          6           0        0.464895   -2.583606   -0.558790
     22          6           0        1.634121   -1.685647   -0.853724
     23          6           0        1.620754   -0.305847   -0.629556
     24          6           0        2.738495    0.462085   -0.932712
     25          6           0        3.894768   -0.120754   -1.451767
     26          6           0        3.898983   -1.501187   -1.670416
     27          6           0        2.790375   -2.278185   -1.363927
     28          6           0        5.126229    0.721478   -1.752795
     29          7           0        6.111014    0.906620   -0.700938
     30          6           0        6.909263   -0.251432   -0.315438
     31          6           0        6.333864   -1.033246    0.877873
     32          7           0        6.042216   -0.183695    2.029535
     33          6           0        7.223359    0.245688    2.756701
     34          6           0        5.165379    0.911876    1.625662
     35          6           0        5.723925    1.722765    0.443969
     36          8           0        0.608282   -3.767969   -0.301438
     37          6           0       -6.030868   -3.520857    0.921114
     38          1           0       -1.029585    5.805526   -1.045791
     39          1           0       -3.369475    4.988143   -0.752234
     40          1           0       -1.723904    1.278437    0.648461
     41          1           0        0.855476    4.265843   -0.519411
     42          1           0       -5.245051    4.278467    0.415741
     43          1           0       -7.376673    2.974342    0.583824
     44          1           0       -6.299650   -1.186207    0.331453
     45          1           0       -3.835102   -5.089268    0.736226
     46          1           0       -1.520358   -4.494442    0.098270
     47          1           0       -2.820916   -0.461717   -0.563232
     48          1           0       -0.737447   -0.997628   -0.945354
     49          1           0        0.762906    0.198480   -0.191726
     50          1           0        2.703098    1.533530   -0.750084
     51          1           0        4.786413   -1.973113   -2.086310
     52          1           0        2.798274   -3.351968   -1.520581
     53          1           0        5.648963    0.281066   -2.611131
     54          1           0        4.797335    1.720545   -2.066064
     55          1           0        7.019737   -0.910617   -1.184048
     56          1           0        7.918487    0.104262   -0.058908
     57          1           0        7.036031   -1.817179    1.186396
     58          1           0        5.399142   -1.524115    0.582705
     59          1           0        7.924683    0.884507    2.191206
     60          1           0        7.776689   -0.638365    3.091939
     61          1           0        6.911892    0.802731    3.647203
     62          1           0        5.000731    1.569929    2.487516
     63          1           0        4.196712    0.477852    1.352333
     64          1           0        6.612911    2.278098    0.778782
     65          1           0        4.991636    2.468899    0.114914
     66          1           0       -6.771181   -3.364261    0.124537
     67          1           0       -6.364350   -2.955442    1.800924
     68          1           0       -6.066396   -4.581208    1.183537
 ---------------------------------------------------------------------

 The electronic state is 1-A.
 Alpha  occ. eigenvalues --  -19.23348 -14.49256 -14.48457 -14.46728 -14.46087
 Alpha  occ. eigenvalues --  -14.45740 -14.43379 -14.42722 -10.41747 -10.40127
 Alpha  occ. eigenvalues --  -10.37599 -10.36337 -10.35289 -10.35028 -10.34637
 Alpha  occ. eigenvalues --  -10.34134 -10.34068 -10.33598 -10.32848 -10.32292
 Alpha  occ. eigenvalues --  -10.31856 -10.31038 -10.30995 -10.30955 -10.30710
 Alpha  occ. eigenvalues --  -10.30698 -10.30370 -10.30280 -10.30256 -10.30234
 Alpha  occ. eigenvalues --  -10.30233 -10.30117 -10.30111 -10.30032 -10.29533
 Alpha  occ. eigenvalues --  -10.28846 -10.28335  -1.13492  -1.12301  -1.06306
 Alpha  occ. eigenvalues --   -1.04558  -1.03602  -1.03553  -1.00717  -0.99258
 Alpha  occ. eigenvalues --   -0.96019  -0.94681  -0.93090  -0.89763  -0.88059
 Alpha  occ. eigenvalues --   -0.87362  -0.86237  -0.85108  -0.84471  -0.83761
 Alpha  occ. eigenvalues --   -0.81666  -0.79491  -0.78258  -0.77659  -0.76306
 Alpha  occ. eigenvalues --   -0.73858  -0.72955  -0.72946  -0.72598  -0.70813
 Alpha  occ. eigenvalues --   -0.70267  -0.69518  -0.67961  -0.66409  -0.65193
 Alpha  occ. eigenvalues --   -0.63615  -0.63255  -0.62260  -0.61800  -0.60197
 Alpha  occ. eigenvalues --   -0.58814  -0.57958  -0.57454  -0.56468  -0.56069
 Alpha  occ. eigenvalues --   -0.55802  -0.55145  -0.54950  -0.54630  -0.54225
 Alpha  occ. eigenvalues --   -0.53567  -0.53188  -0.52974  -0.52334  -0.52180
 Alpha  occ. eigenvalues --   -0.51854  -0.51495  -0.51333  -0.50900  -0.50592
 Alpha  occ. eigenvalues --   -0.50458  -0.50177  -0.49951  -0.49426  -0.48310
 Alpha  occ. eigenvalues --   -0.47275  -0.46728  -0.46452  -0.46284  -0.45987
 Alpha  occ. eigenvalues --   -0.45575  -0.44874  -0.44524  -0.43927  -0.43717
 Alpha  occ. eigenvalues --   -0.43438  -0.43047  -0.42064  -0.41690  -0.41204
 Alpha  occ. eigenvalues --   -0.40646  -0.40591  -0.39935  -0.38200  -0.37598
 Alpha  occ. eigenvalues --   -0.35782  -0.35283  -0.33997  -0.33447  -0.33339
 Alpha  occ. eigenvalues --   -0.32836  -0.31832  -0.30556  -0.29157  -0.27089
 Alpha  occ. eigenvalues --   -0.24670
 Alpha virt. eigenvalues --   -0.00297   0.02900   0.03363   0.04521   0.06516
 Alpha virt. eigenvalues --    0.07280   0.08337   0.10416   0.14541   0.14890
 Alpha virt. eigenvalues --    0.15956   0.16292   0.17361   0.17725   0.18683

 Mulliken atomic charges:
              1
     1  C   -0.197807
     2  C   -0.155245
     3  C    0.035184
     4  C    0.006866
     5  N   -0.435292
     6  C    0.031071
     7  C    0.295592
     8  C   -0.255116
     9  C    0.048865
    10  N   -0.492951
    11  C    0.712249
    12  N   -0.567557
    13  N   -0.800012
    14  C    0.290054
    15  C    0.119876
    16  C   -0.240161
    17  C   -0.189956
    18  C    0.357071
    19  C   -0.267446
    20  N   -0.767185
    21  C    0.599378
    22  C    0.016454
    23  C   -0.208111
    24  C   -0.228608
    25  C    0.159705
    26  C   -0.223306
    27  C   -0.176846
    28  C   -0.262967
    29  N   -0.380695
    30  C   -0.186275
    31  C   -0.183433
    32  N   -0.383581
    33  C   -0.349527
    34  C   -0.182813
    35  C   -0.184779
    36  O   -0.516456
    37  C   -0.608186
    38  H    0.186488
    39  H    0.186330
    40  H    0.201319
    41  H    0.181241
    42  H    0.180747
    43  H    0.189376
    44  H    0.369155
    45  H    0.160917
    46  H    0.215613
    47  H    0.195930
    48  H    0.359659
    49  H    0.188286
    50  H    0.166920
    51  H    0.163885
    52  H    0.198328
    53  H    0.168948
    54  H    0.166648
    55  H    0.152158
    56  H    0.159071
    57  H    0.153103
    58  H    0.173788
    59  H    0.133781
    60  H    0.167294
    61  H    0.166558
    62  H    0.152232
    63  H    0.173962
    64  H    0.158542
    65  H    0.149561
    66  H    0.177715
    67  H    0.183638
    68  H    0.190755
 Sum of Mulliken atomic charges =   0.00000

 Dipole moment (field-independent basis, Debye):
    X=             -2.5379    Y=              6.1213    Z=             -1.0839  Tot=              6.7146
 Quadrupole moment (field-independent basis, Debye-Ang):
   XX=           -189.8208   YY=           -196.2302   ZZ=           -219.0723
   XY=             -6.1407   XZ=             -5.5474   YZ=             -1.6447

 Normal termination of Gaussian 09 at Tue Mar 10 16:12:19 2020.
