 Gaussian 09, Revision A.02,
 Gaussian 09:  EM64L-G09RevA.02 11-Jun-2009

 --------------------------------------------------
 #P opt=(,maxcycle=400) wB97XD/6-31G* MaxDisk=100GB
 --------------------------------------------------

 --------------------------------------------------------------
 MOLECULE0 Rotatable Bond Optimization on node37.bme.utexas.edu
 --------------------------------------------------------------
 Symbolic Z-matrix:
 Charge =  0 Multiplicity = 1

 SCF Done:  E(RwB97XD) =  -1581.52949137     A.U. after   16 cycles
 SCF Done:  E(RwB97XD) =  -1581.58864250     A.U. after   13 cycles
 SCF Done:  E(RwB97XD) =  -1581.68466673     A.U. after   14 cycles
 SCF Done:  E(RwB97XD) =  -1581.72651793     A.U. after   14 cycles
 SCF Done:  E(RwB97XD) =  -1581.73207708     A.U. after   17 cycles
 SCF Done:  E(RwB97XD) =  -1581.74073362     A.U. after   17 cycles
 SCF Done:  E(RwB97XD) =  -1581.75644683     A.U. after   14 cycles
 SCF Done:  E(RwB97XD) =  -1581.75874041     A.U. after   14 cycles
 SCF Done:  E(RwB97XD) =  -1581.75984024     A.U. after   16 cycles
 SCF Done:  E(RwB97XD) =  -1581.76075150     A.U. after   14 cycles
 SCF Done:  E(RwB97XD) =  -1581.76306459     A.U. after   13 cycles
 SCF Done:  E(RwB97XD) =  -1581.76315714     A.U. after   12 cycles
 SCF Done:  E(RwB97XD) =  -1581.76317757     A.U. after   12 cycles
 SCF Done:  E(RwB97XD) =  -1581.76319291     A.U. after   12 cycles
 SCF Done:  E(RwB97XD) =  -1581.76320431     A.U. after   12 cycles
 SCF Done:  E(RwB97XD) =  -1581.76321166     A.U. after   12 cycles
 SCF Done:  E(RwB97XD) =  -1581.76321286     A.U. after   11 cycles
 SCF Done:  E(RwB97XD) =  -1581.76321595     A.U. after    8 cycles
 SCF Done:  E(RwB97XD) =  -1581.76321583     A.U. after    8 cycles
 SCF Done:  E(RwB97XD) =  -1581.76321618     A.U. after    7 cycles
 Optimization completed.
    -- Stationary point found.

                         Standard orientation:
 ---------------------------------------------------------------------
 Center     Atomic      Atomic             Coordinates (Angstroms)
 Number     Number       Type             X           Y           Z
 ---------------------------------------------------------------------
      1          6           0       -0.473648    4.275048   -0.771625
      2          6           0        0.870901    4.192411   -0.430407
      3          6           0        1.547396    2.990469   -0.631668
      4          6           0        0.820990    1.926431   -1.182774
      5          7           0       -0.467997    1.990133   -1.511796
      6          6           0       -1.096979    3.150119   -1.300610
      7          6           0        2.969242    2.789336   -0.253855
      8          6           0        3.900110    3.819371   -0.153884
      9          6           0        5.185967    3.446801    0.236250
     10          7           0        5.545378    2.197421    0.497206
     11          6           0        4.572118    1.274932    0.354316
     12          7           0        3.312178    1.523609   -0.002586
     13          7           0        4.960963   -0.011108    0.612474
     14          6           0        4.245153   -1.217190    0.494247
     15          6           0        4.968844   -2.426919    0.479716
     16          6           0        4.248174   -3.609761    0.338690
     17          6           0        2.862427   -3.650989    0.195706
     18          6           0        2.171246   -2.443387    0.217004
     19          6           0        2.859615   -1.243428    0.393231
     20          7           0        0.784739   -2.305314    0.039044
     21          6           0       -0.155423   -3.232483   -0.330916
     22          6           0       -1.474782   -2.600933   -0.675375
     23          6           0       -1.549848   -1.357932   -1.310832
     24          6           0       -2.782142   -0.778536   -1.574502
     25          6           0       -3.965556   -1.409687   -1.191469
     26          6           0       -3.883931   -2.677181   -0.608025
     27          6           0       -2.653854   -3.274210   -0.357875
     28          6           0       -5.302567   -0.703880   -1.348462
     29          7           0       -5.692646    0.226197   -0.299630
     30          6           0       -5.025599    1.522816   -0.247427
     31          6           0       -3.815557    1.577581    0.702953
     32          7           0       -4.112777    1.068536    2.038962
     33          6           0       -4.901360    1.977593    2.851615
     34          6           0       -4.679092   -0.274784    1.939852
     35          6           0       -5.914286   -0.340174    1.026222
     36          8           0        0.036381   -4.436382   -0.364209
     37          6           0        6.471609   -2.442757    0.599552
     38          1           0       -1.033082    5.191688   -0.618804
     39          1           0        1.375964    5.045492    0.013475
     40          1           0        1.325142    0.981161   -1.367022
     41          1           0       -2.151951    3.176904   -1.564915
     42          1           0        3.661074    4.851232   -0.379402
     43          1           0        5.967412    4.197001    0.339653
     44          1           0        5.942047   -0.077179    0.838995
     45          1           0        4.796356   -4.548475    0.325828
     46          1           0        2.333446   -4.585068    0.065160
     47          1           0        2.314640   -0.312000    0.418240
     48          1           0        0.446363   -1.358778    0.129939
     49          1           0       -0.653383   -0.832917   -1.627671
     50          1           0       -2.809995    0.190915   -2.065418
     51          1           0       -4.798677   -3.196993   -0.331670
     52          1           0       -2.590184   -4.256778    0.099022
     53          1           0       -5.308308   -0.148524   -2.294182
     54          1           0       -6.094916   -1.459693   -1.422957
     55          1           0       -4.724017    1.804367   -1.263469
     56          1           0       -5.766806    2.267929    0.078772
     57          1           0       -3.458121    2.611554    0.792619
     58          1           0       -2.990811    0.982369    0.295598
     59          1           0       -5.911456    2.205359    2.467787
     60          1           0       -4.363503    2.926874    2.951871
     61          1           0       -5.016912    1.550471    3.853745
     62          1           0       -4.937528   -0.623501    2.947109
     63          1           0       -3.897391   -0.938254    1.552145
     64          1           0       -6.742940    0.208366    1.498458
     65          1           0       -6.248219   -1.377913    0.915206
     66          1           0        6.816990   -2.031129    1.557815
     67          1           0        6.951989   -1.866392   -0.201792
     68          1           0        6.851843   -3.465402    0.535939
 ---------------------------------------------------------------------

 The electronic state is 1-A.
 Alpha  occ. eigenvalues --  -19.23411 -14.49283 -14.48321 -14.46751 -14.46096
 Alpha  occ. eigenvalues --  -14.45764 -14.43617 -14.43135 -10.41778 -10.40081
 Alpha  occ. eigenvalues --  -10.37615 -10.36338 -10.35325 -10.35084 -10.34623
 Alpha  occ. eigenvalues --  -10.34135 -10.34016 -10.33623 -10.32863 -10.32367
 Alpha  occ. eigenvalues --  -10.31860 -10.31492 -10.31179 -10.30935 -10.30709
 Alpha  occ. eigenvalues --  -10.30687 -10.30677 -10.30586 -10.30533 -10.30403
 Alpha  occ. eigenvalues --  -10.30377 -10.30220 -10.30020 -10.29975 -10.29575
 Alpha  occ. eigenvalues --  -10.28740 -10.28405  -1.13443  -1.12296  -1.06322
 Alpha  occ. eigenvalues --   -1.04565  -1.03829  -1.03634  -1.00716  -0.99558
 Alpha  occ. eigenvalues --   -0.96086  -0.94671  -0.93098  -0.89778  -0.88125
 Alpha  occ. eigenvalues --   -0.87389  -0.86228  -0.85399  -0.84542  -0.83783
 Alpha  occ. eigenvalues --   -0.81888  -0.79581  -0.78270  -0.77798  -0.76321
 Alpha  occ. eigenvalues --   -0.73881  -0.73300  -0.73025  -0.72621  -0.70870
 Alpha  occ. eigenvalues --   -0.70314  -0.69615  -0.68039  -0.66413  -0.65150
 Alpha  occ. eigenvalues --   -0.63656  -0.63409  -0.62228  -0.61762  -0.60211
 Alpha  occ. eigenvalues --   -0.58848  -0.58045  -0.57570  -0.56611  -0.56101
 Alpha  occ. eigenvalues --   -0.55817  -0.55236  -0.55134  -0.54965  -0.54255
 Alpha  occ. eigenvalues --   -0.53866  -0.53239  -0.53154  -0.52612  -0.52174
 Alpha  occ. eigenvalues --   -0.51912  -0.51510  -0.51371  -0.50999  -0.50575
 Alpha  occ. eigenvalues --   -0.50365  -0.50116  -0.49975  -0.49497  -0.48335
 Alpha  occ. eigenvalues --   -0.47217  -0.46906  -0.46619  -0.46319  -0.46211
 Alpha  occ. eigenvalues --   -0.45762  -0.45236  -0.44798  -0.44045  -0.43932
 Alpha  occ. eigenvalues --   -0.43328  -0.43017  -0.42141  -0.41766  -0.41439
 Alpha  occ. eigenvalues --   -0.40964  -0.40776  -0.39912  -0.38187  -0.37592
 Alpha  occ. eigenvalues --   -0.35821  -0.35293  -0.34002  -0.33446  -0.33373
 Alpha  occ. eigenvalues --   -0.32819  -0.31904  -0.30772  -0.29115  -0.27080
 Alpha  occ. eigenvalues --   -0.24996
 Alpha virt. eigenvalues --   -0.00292   0.02871   0.03585   0.04480   0.06433
 Alpha virt. eigenvalues --    0.07258   0.08204   0.10372   0.13887   0.14815
 Alpha virt. eigenvalues --    0.15728   0.16386   0.17252   0.17440   0.18251

 Mulliken atomic charges:
              1
     1  C   -0.197837
     2  C   -0.154402
     3  C    0.035500
     4  C    0.009571
     5  N   -0.437521
     6  C    0.035728
     7  C    0.295187
     8  C   -0.254770
     9  C    0.049020
    10  N   -0.493042
    11  C    0.714408
    12  N   -0.568427
    13  N   -0.802113
    14  C    0.291516
    15  C    0.119852
    16  C   -0.240382
    17  C   -0.191296
    18  C    0.358167
    19  C   -0.269709
    20  N   -0.757985
    21  C    0.585771
    22  C    0.015218
    23  C   -0.205374
    24  C   -0.217912
    25  C    0.155965
    26  C   -0.223077
    27  C   -0.178383
    28  C   -0.263564
    29  N   -0.382203
    30  C   -0.183895
    31  C   -0.181783
    32  N   -0.385721
    33  C   -0.349269
    34  C   -0.182631
    35  C   -0.186530
    36  O   -0.513310
    37  C   -0.607363
    38  H    0.186141
    39  H    0.186721
    40  H    0.198127
    41  H    0.179049
    42  H    0.180742
    43  H    0.189490
    44  H    0.369214
    45  H    0.160819
    46  H    0.213082
    47  H    0.199368
    48  H    0.361560
    49  H    0.185455
    50  H    0.172063
    51  H    0.163618
    52  H    0.195620
    53  H    0.170281
    54  H    0.168923
    55  H    0.148151
    56  H    0.158367
    57  H    0.141634
    58  H    0.174890
    59  H    0.135274
    60  H    0.164119
    61  H    0.167875
    62  H    0.153489
    63  H    0.172943
    64  H    0.159390
    65  H    0.154992
    66  H    0.178031
    67  H    0.182751
    68  H    0.190419
 Sum of Mulliken atomic charges =   0.00000

 Dipole moment (field-independent basis, Debye):
    X=              0.5807    Y=              6.5722    Z=              0.4344  Tot=              6.6121
 Quadrupole moment (field-independent basis, Debye-Ang):
   XX=           -193.3000   YY=           -202.5054   ZZ=           -220.4841
   XY=              3.1043   XZ=             -1.2742   YZ=             -5.2150

 Normal termination of Gaussian 09 at Tue Mar  3 12:02:32 2020.
