                               Psi4 1.3.2 release

  ==> Input File <==

--------------------------------------------------------------------------
molecule {
0 1
 C   -1.912768    5.067415   -0.248831
 C   -3.210271    4.558102   -0.393618
 C   -3.449112    3.182509   -0.208981
 C   -2.322150    2.403088    0.150776
 N   -1.075668    2.870744    0.295507
 C   -0.882482    4.183049    0.090996
 C   -4.803214    2.536649   -0.362255
 C   -6.015895    3.220401   -0.548207
 C   -7.160600    2.418812   -0.638175
 N   -7.153877    1.088865   -0.571109
 C   -5.944269    0.515182   -0.410063
 N   -4.800237    1.192652   -0.306691
 N   -5.939563   -0.867518   -0.356029
 C   -4.907269   -1.840101   -0.089594
 C   -5.270793   -3.165354    0.298425
 C   -4.227820   -4.065654    0.573495
 C   -2.869672   -3.736840    0.493680
 C   -2.522781   -2.443793    0.087768
 C   -3.545979   -1.528056   -0.204433
 N   -1.187489   -1.938545   -0.044570
 C    0.028663   -2.469165    0.321268
 C    1.251195   -1.572166    0.236863
 C    1.217304   -0.172445    0.358226
 C    2.393665    0.575983    0.266011
 C    3.654881   -0.032822    0.099416
 C    3.668620   -1.435698   -0.025579
 C    2.498843   -2.194261    0.064787
 C    4.901927    0.857934    0.016130
 N    6.236806    0.314567   -0.308997
 C    7.252606    1.332606   -0.672721
 C    8.627523    0.750390   -1.084241
 N    9.233316   -0.142680   -0.071221
 C    9.968406    0.507872    1.019731
 C    8.224565   -1.151592    0.323069
 C    6.845454   -0.568993    0.723698
 O    0.144945   -3.627852    0.692045
 C   -6.711624   -3.624317    0.446135
 H   -1.703735    6.122648   -0.397247
 H   -4.009954    5.240775   -0.670163
 H   -2.431253    1.343121    0.357728
 H    0.142219    4.529988    0.215149
 H   -6.111412    4.297950   -0.600872
 H   -8.153267    2.848997   -0.768570
 H   -6.888685   -1.205626   -0.407887
 H   -4.473236   -5.081281    0.881404
 H   -2.096572   -4.454899    0.735521
 H   -3.282460   -0.538309   -0.537655
 H   -1.136136   -1.004807   -0.426223
 H    0.270892    0.336533    0.527439
 H    2.320267    1.660595    0.349088
 H    4.597605   -1.962445   -0.228271
 H    2.535948   -3.278155   -0.013766
 H    4.648286    1.604345   -0.751829
 H    5.020922    1.368109    0.984376
 H    6.741387    2.118661   -1.827039
 H    7.434479    2.262942    0.471390
 H    9.362466    1.570993   -1.358910
 H    8.402561   -0.090233   -2.321119
 H    9.294817    1.107097    1.642859
 H   10.748079    1.162076    0.612635
 H   10.457795   -0.245098    1.648326
 H    8.733774   -1.904721    1.356855
 H    8.024394   -2.051333   -0.846136
 H    7.041597    0.254874    1.996196
 H    6.220684   -1.312067    0.964452
 H   -7.289662   -3.517635   -0.482750
 H   -7.229461   -3.046607    1.216839
 H   -6.791723   -4.674920    0.736729
}
memory 20GB
set_num_threads(6)
psi4_io.set_default_path("/scratch/bdw2292")
set freeze_core True
E, wfn = energy('mp2/6-311++G**',return_wfn=True)
oeprop(wfn,"WIBERG_LOWDIN_INDICES")
clean()
--------------------------------------------------------------------------

    Molecular point group: c1

    Geometry (in Angstrom), charge = 0, multiplicity = 1:

       Center              X                  Y                   Z               Mass
    ------------   -----------------  -----------------  -----------------  -----------------
         C           -1.760329722522     5.055195816189    -0.255458886504    12.000000000000
         C           -3.057832722522     4.545882816189    -0.400245886504    12.000000000000
         C           -3.296673722522     3.170289816189    -0.215608886504    12.000000000000
         C           -2.169711722522     2.390868816189     0.144148113496    12.000000000000
         N           -0.923229722522     2.858524816189     0.288879113496    14.003074004430
         C           -0.730043722522     4.170829816189     0.084368113496    12.000000000000
         C           -4.650775722522     2.524429816189    -0.368882886504    12.000000000000
         C           -5.863456722522     3.208181816189    -0.554834886504    12.000000000000
         C           -7.008161722522     2.406592816189    -0.644802886504    12.000000000000
         N           -7.001438722522     1.076645816189    -0.577736886504    14.003074004430
         C           -5.791830722522     0.502962816189    -0.416690886504    12.000000000000
         N           -4.647798722522     1.180432816189    -0.313318886504    14.003074004430
         N           -5.787124722522    -0.879737183811    -0.362656886504    14.003074004430
         C           -4.754830722522    -1.852320183811    -0.096221886504    12.000000000000
         C           -5.118354722522    -3.177573183811     0.291797113496    12.000000000000
         C           -4.075381722522    -4.077873183811     0.566867113496    12.000000000000
         C           -2.717233722522    -3.749059183811     0.487052113496    12.000000000000
         C           -2.370342722522    -2.456012183811     0.081140113496    12.000000000000
         C           -3.393540722522    -1.540275183811    -0.211060886504    12.000000000000
         N           -1.035050722522    -1.950764183811    -0.051197886504    14.003074004430
         C            0.181101277478    -2.481384183811     0.314640113496    12.000000000000
         C            1.403633277478    -1.584385183811     0.230235113496    12.000000000000
         C            1.369742277478    -0.184664183811     0.351598113496    12.000000000000
         C            2.546103277478     0.563763816189     0.259383113496    12.000000000000
         C            3.807319277478    -0.045041183811     0.092788113496    12.000000000000
         C            3.821058277478    -1.447917183811    -0.032206886504    12.000000000000
         C            2.651281277478    -2.206480183811     0.058159113496    12.000000000000
         C            5.054365277478     0.845714816189     0.009502113496    12.000000000000
         N            6.389244277478     0.302347816189    -0.315624886504    14.003074004430
         C            7.405044277478     1.320386816189    -0.679348886504    12.000000000000
         C            8.779961277478     0.738170816189    -1.090868886504    12.000000000000
         N            9.385754277478    -0.154899183811    -0.077848886504    14.003074004430
         C           10.120844277478     0.495652816189     1.013103113496    12.000000000000
         C            8.377003277478    -1.163811183811     0.316441113496    12.000000000000
         C            6.997892277478    -0.581212183811     0.717070113496    12.000000000000
         O            0.297383277478    -3.640071183811     0.685417113496    15.994914619570
         C           -6.559185722522    -3.636536183811     0.439507113496    12.000000000000
         H           -1.551296722522     6.110428816189    -0.403874886504     1.007825032230
         H           -3.857515722522     5.228555816189    -0.676790886504     1.007825032230
         H           -2.278814722522     1.330901816189     0.351100113496     1.007825032230
         H            0.294657277478     4.517768816189     0.208521113496     1.007825032230
         H           -5.958973722522     4.285730816189    -0.607499886504     1.007825032230
         H           -8.000828722522     2.836777816189    -0.775197886504     1.007825032230
         H           -6.736246722522    -1.217845183811    -0.414514886504     1.007825032230
         H           -4.320797722522    -5.093500183811     0.874776113496     1.007825032230
         H           -1.944133722522    -4.467118183811     0.728893113496     1.007825032230
         H           -3.130021722522    -0.550528183811    -0.544282886504     1.007825032230
         H           -0.983697722522    -1.017026183811    -0.432850886504     1.007825032230
         H            0.423330277478     0.324313816189     0.520811113496     1.007825032230
         H            2.472705277478     1.648375816189     0.342460113496     1.007825032230
         H            4.750043277478    -1.974664183811    -0.234898886504     1.007825032230
         H            2.688386277478    -3.290374183811    -0.020393886504     1.007825032230
         H            4.800724277478     1.592125816189    -0.758456886504     1.007825032230
         H            5.173360277478     1.355889816189     0.977748113496     1.007825032230
         H            6.893825277478     2.106441816189    -1.833666886504     1.007825032230
         H            7.586917277478     2.250722816189     0.464762113496     1.007825032230
         H            9.514904277478     1.558773816189    -1.365537886504     1.007825032230
         H            8.554999277478    -0.102452183811    -2.327746886504     1.007825032230
         H            9.447255277478     1.094877816189     1.636231113496     1.007825032230
         H           10.900517277478     1.149856816189     0.606007113496     1.007825032230
         H           10.610233277478    -0.257317183811     1.641698113496     1.007825032230
         H            8.886212277478    -1.916940183811     1.350227113496     1.007825032230
         H            8.176832277478    -2.063552183811    -0.852763886504     1.007825032230
         H            7.194035277478     0.242654816189     1.989568113496     1.007825032230
         H            6.373122277478    -1.324286183811     0.957824113496     1.007825032230
         H           -7.137223722522    -3.529854183811    -0.489377886504     1.007825032230
         H           -7.077022722522    -3.058826183811     1.210211113496     1.007825032230
         H           -6.639284722522    -4.687139183811     0.730101113496     1.007825032230

  Charge       = 0
  Multiplicity = 1
  Basis Set: 6-311++G**
    Blend: 6-311++G**
  Basis Set: (6-311++G** AUX)
    Blend: AUG-CC-PVTZ-JKFIT

    Orbital Energies [Eh]
    ---------------------

    Doubly Occupied:

       1A    -20.518305     2A    -15.603375     3A    -15.600331
       4A    -15.589238     5A    -15.587149     6A    -15.573348
       7A    -15.568037     8A    -15.567781     9A    -11.373998
      10A    -11.362598    11A    -11.344239    12A    -11.334245
      13A    -11.332461    14A    -11.314830    15A    -11.313725
      16A    -11.302160    17A    -11.301541    18A    -11.300919
      19A    -11.300512    20A    -11.292091    21A    -11.289644
      22A    -11.280436    23A    -11.279121    24A    -11.266302
      25A    -11.266083    26A    -11.255720    27A    -11.253555
      28A    -11.252422    29A    -11.252349    30A    -11.246639
      31A    -11.246435    32A    -11.244613    33A    -11.241279
      34A    -11.238726    35A    -11.233371    36A    -11.230576
      37A    -11.223748    38A     -1.383946    39A     -1.344964
      40A     -1.278651    41A     -1.255016    42A     -1.249217
      43A     -1.240492    44A     -1.211894    45A     -1.209421
      46A     -1.160205    47A     -1.139013    48A     -1.116098
      49A     -1.075138    50A     -1.059841    51A     -1.048395
      52A     -1.037974    53A     -1.020177    54A     -1.007062
      55A     -1.003549    56A     -0.983246    57A     -0.947235
      58A     -0.929594    59A     -0.926541    60A     -0.900614
      61A     -0.873064    62A     -0.872267    63A     -0.858204
      64A     -0.846229    65A     -0.841871    66A     -0.827495
      67A     -0.818170    68A     -0.804553    69A     -0.776748
      70A     -0.754199    71A     -0.738387    72A     -0.729938
      73A     -0.721755    74A     -0.698293    75A     -0.697798
      76A     -0.682396    77A     -0.675996    78A     -0.668574
      79A     -0.657937    80A     -0.652592    81A     -0.650695
      82A     -0.649448    83A     -0.639545    84A     -0.631051
      85A     -0.627515    86A     -0.620232    87A     -0.616637
      88A     -0.611846    89A     -0.608884    90A     -0.603516
      91A     -0.601598    92A     -0.598751    93A     -0.595594
      94A     -0.589773    95A     -0.585000    96A     -0.581442
      97A     -0.578323    98A     -0.574510    99A     -0.561655
     100A     -0.556320   101A     -0.548072   102A     -0.546606
     103A     -0.544626   104A     -0.532111   105A     -0.522558
     106A     -0.513546   107A     -0.508836   108A     -0.508382
     109A     -0.504934   110A     -0.503466   111A     -0.495435
     112A     -0.493011   113A     -0.484012   114A     -0.477984
     115A     -0.465168   116A     -0.451512   117A     -0.442906
     118A     -0.437948   119A     -0.426122   120A     -0.424500
     121A     -0.414009   122A     -0.400374   123A     -0.398333
     124A     -0.373371   125A     -0.367368   126A     -0.346148
     127A     -0.343270   128A     -0.342198   129A     -0.333225
     130A     -0.313505   131A     -0.289431

  @DF-RHF Final Energy: -1572.27502164331599

   => Energetics <=

    Nuclear Repulsion Energy =           3578.9139651412347121
    One-Electron Energy =               -9255.6940741909165808
    Two-Electron Energy =                4104.5050874063654192
    Total Energy =                      -1572.2750216433159949

  Dipole Moment: [D]
     X:    -2.1777      Y:     7.3983      Z:    -0.5365     Total:     7.7307

  Basis Set: (6-311++G** AUX)
    Blend: AUG-CC-PVTZ-RI
	 Reference Energy          =   -1572.2750216433159949 [Eh]
	 Singles Energy            =      -0.0000000000000000 [Eh]
	 Same-Spin Energy          =      -1.4690489226427947 [Eh]
	 Opposite-Spin Energy      =      -4.0494235128414555 [Eh]
	 Correlation Energy        =      -5.5184724354842505 [Eh]
	 Total Energy              =   -1577.7934940788002223 [Eh]

	 ================> DF-SCS-MP2 Energies <==================
	-----------------------------------------------------------
	 SCS Same-Spin Scale       =       0.3333333333333333 [-]
	 SCS Opposite-Spin Scale   =       1.2000000000000000 [-]
	 SCS Same-Spin Energy      =      -0.4896829742142649 [Eh]
	 SCS Opposite-Spin Energy  =      -4.8593082154097464 [Eh]
	 SCS Correlation Energy    =      -5.3489911896240114 [Eh]
	 SCS Total Energy          =   -1577.6240128329400250 [Eh]
	-----------------------------------------------------------

*** Psi4 exiting successfully. Buy a developer a beer!
