 Gaussian 09, Revision A.02,
 Gaussian 09:  EM64L-G09RevA.02 11-Jun-2009

 --------------------------------------------------
 #P opt=(,maxcycle=400) wB97XD/6-31G* MaxDisk=100GB
 --------------------------------------------------

 -----------------------------------------------------------------
 MOLECULE0 Rotatable Bond Optimization on g2-node38.bme.utexas.edu
 -----------------------------------------------------------------
 Symbolic Z-matrix:
 Charge =  0 Multiplicity = 1

 SCF Done:  E(RwB97XD) =  -1581.43113565     A.U. after   16 cycles
 SCF Done:  E(RwB97XD) =  -1581.50988163     A.U. after   13 cycles
 SCF Done:  E(RwB97XD) =  -1581.62741897     A.U. after   14 cycles
 SCF Done:  E(RwB97XD) =  -1581.68104288     A.U. after   15 cycles
 SCF Done:  E(RwB97XD) =  -1581.71627809     A.U. after   17 cycles
 SCF Done:  E(RwB97XD) =  -1581.71493407     A.U. after   16 cycles
 SCF Done:  E(RwB97XD) =  -1581.72778630     A.U. after   14 cycles
 SCF Done:  E(RwB97XD) =  -1581.74261791     A.U. after   14 cycles
 SCF Done:  E(RwB97XD) =  -1581.74773692     A.U. after   14 cycles
 SCF Done:  E(RwB97XD) =  -1581.75039196     A.U. after   16 cycles
 SCF Done:  E(RwB97XD) =  -1581.76881774     A.U. after   12 cycles
 SCF Done:  E(RwB97XD) =  -1581.76882903     A.U. after   12 cycles
 SCF Done:  E(RwB97XD) =  -1581.76884346     A.U. after   12 cycles
 SCF Done:  E(RwB97XD) =  -1581.76884890     A.U. after   12 cycles
 SCF Done:  E(RwB97XD) =  -1581.76885186     A.U. after    9 cycles
 SCF Done:  E(RwB97XD) =  -1581.76885281     A.U. after    8 cycles
 SCF Done:  E(RwB97XD) =  -1581.76885337     A.U. after    7 cycles
 SCF Done:  E(RwB97XD) =  -1581.76885342     A.U. after    6 cycles
 SCF Done:  E(RwB97XD) =  -1581.76885343     A.U. after    7 cycles
 SCF Done:  E(RwB97XD) =  -1581.76885348     A.U. after    6 cycles
 Optimization completed.
    -- Stationary point found.

                         Standard orientation:
 ---------------------------------------------------------------------
 Center     Atomic      Atomic             Coordinates (Angstroms)
 Number     Number       Type             X           Y           Z
 ---------------------------------------------------------------------
      1          6           0       -1.637950    4.878123   -0.353803
      2          6           0       -2.941012    4.398271   -0.305580
      3          6           0       -3.162282    3.081396    0.093758
      4          6           0       -2.040909    2.314316    0.436935
      5          7           0       -0.786125    2.757316    0.386131
      6          6           0       -0.598946    4.020371   -0.008671
      7          6           0       -4.509993    2.461185    0.129942
      8          6           0       -5.695473    3.181309    0.248696
      9          6           0       -6.870912    2.431295    0.238946
     10          7           0       -6.902092    1.109369    0.140397
     11          6           0       -5.697525    0.509169    0.052473
     12          7           0       -4.518626    1.129503    0.032271
     13          7           0       -5.742825   -0.855350   -0.023054
     14          6           0       -4.699580   -1.800500   -0.009557
     15          6           0       -5.021340   -3.136019    0.305417
     16          6           0       -3.981812   -4.060289    0.337513
     17          6           0       -2.652494   -3.725565    0.090944
     18          6           0       -2.358637   -2.400808   -0.222767
     19          6           0       -3.383054   -1.455989   -0.296856
     20          7           0       -1.064420   -1.905082   -0.462076
     21          6           0        0.146416   -2.523543   -0.283873
     22          6           0        1.331070   -1.610609   -0.430464
     23          6           0        1.282283   -0.238473   -0.172809
     24          6           0        2.425511    0.541182   -0.313187
     25          6           0        3.631160   -0.025820   -0.719705
     26          6           0        3.680364   -1.402293   -0.959599
     27          6           0        2.546989   -2.186585   -0.807204
     28          6           0        4.862066    0.830382   -0.927266
     29          7           0        6.083177    0.171216   -0.502702
     30          6           0        7.274853    0.844875   -1.001944
     31          6           0        8.521855    0.047097   -0.609195
     32          7           0        8.640396   -0.185854    0.824472
     33          6           0        9.073104    0.981958    1.571753
     34          6           0        7.404376   -0.775898    1.325681
     35          6           0        6.148518    0.012732    0.946825
     36          8           0        0.273662   -3.712963   -0.040639
     37          6           0       -6.438137   -3.550299    0.612360
     38          1           0       -1.427945    5.894980   -0.667635
     39          1           0       -3.769693    5.034843   -0.602292
     40          1           0       -2.182829    1.291038    0.774450
     41          1           0        0.433389    4.359727   -0.052364
     42          1           0       -5.720083    4.258091    0.361324
     43          1           0       -7.837806    2.923670    0.321061
     44          1           0       -6.684657   -1.211544    0.041509
     45          1           0       -4.216814   -5.093896    0.578880
     46          1           0       -1.864999   -4.463487    0.145406
     47          1           0       -3.152988   -0.431397   -0.548428
     48          1           0       -1.031182   -0.939741   -0.753309
     49          1           0        0.378283    0.249466    0.182952
     50          1           0        2.367544    1.603664   -0.090790
     51          1           0        4.627389   -1.847541   -1.248979
     52          1           0        2.583403   -3.257970   -0.975713
     53          1           0        4.960444    1.046260   -1.999559
     54          1           0        4.721418    1.807518   -0.423561
     55          1           0        7.211473    0.908984   -2.094598
     56          1           0        7.345744    1.882363   -0.617602
     57          1           0        9.423566    0.557752   -0.964641
     58          1           0        8.470890   -0.929743   -1.106611
     59          1           0        8.377769    1.839301    1.548508
     60          1           0       10.035852    1.323621    1.176566
     61          1           0        9.221297    0.702596    2.620320
     62          1           0        7.473148   -0.876464    2.414206
     63          1           0        7.314440   -1.783987    0.901349
     64          1           0        6.140809    0.998658    1.453563
     65          1           0        5.259987   -0.530259    1.284240
     66          1           0       -7.114597   -3.382749   -0.236966
     67          1           0       -6.846366   -3.007320    1.474536
     68          1           0       -6.483636   -4.616407    0.848636
 ---------------------------------------------------------------------

 The electronic state is 1-A.
 Alpha  occ. eigenvalues --  -19.23149 -14.49164 -14.48274 -14.46627 -14.46015
 Alpha  occ. eigenvalues --  -14.45670 -14.44209 -14.43407 -10.41671 -10.39914
 Alpha  occ. eigenvalues --  -10.37528 -10.36270 -10.35198 -10.34938 -10.34541
 Alpha  occ. eigenvalues --  -10.34056 -10.33964 -10.33513 -10.32768 -10.32360
 Alpha  occ. eigenvalues --  -10.31786 -10.31501 -10.31244 -10.31049 -10.31001
 Alpha  occ. eigenvalues --  -10.30791 -10.30746 -10.30564 -10.30348 -10.30269
 Alpha  occ. eigenvalues --  -10.29965 -10.29801 -10.29730 -10.29434 -10.29339
 Alpha  occ. eigenvalues --  -10.28765 -10.28208  -1.13292  -1.12226  -1.06215
 Alpha  occ. eigenvalues --   -1.04534  -1.04466  -1.03414  -1.00645  -1.00241
 Alpha  occ. eigenvalues --   -0.95715  -0.94567  -0.93009  -0.89678  -0.87991
 Alpha  occ. eigenvalues --   -0.87299  -0.86251  -0.85527  -0.84144  -0.83663
 Alpha  occ. eigenvalues --   -0.82023  -0.79429  -0.78179  -0.77428  -0.76199
 Alpha  occ. eigenvalues --   -0.73771  -0.73430  -0.72821  -0.72529  -0.71073
 Alpha  occ. eigenvalues --   -0.69948  -0.69229  -0.67700  -0.66099  -0.65048
 Alpha  occ. eigenvalues --   -0.63870  -0.63362  -0.62074  -0.61694  -0.60029
 Alpha  occ. eigenvalues --   -0.58728  -0.58564  -0.57571  -0.56099  -0.55834
 Alpha  occ. eigenvalues --   -0.55573  -0.55528  -0.55333  -0.55073  -0.54497
 Alpha  occ. eigenvalues --   -0.53876  -0.53260  -0.53003  -0.52290  -0.52093
 Alpha  occ. eigenvalues --   -0.51582  -0.51448  -0.51106  -0.50873  -0.50603
 Alpha  occ. eigenvalues --   -0.50345  -0.49994  -0.49615  -0.49510  -0.48201
 Alpha  occ. eigenvalues --   -0.47938  -0.47147  -0.46694  -0.46565  -0.46116
 Alpha  occ. eigenvalues --   -0.45522  -0.45087  -0.44019  -0.43816  -0.43272
 Alpha  occ. eigenvalues --   -0.42908  -0.42530  -0.42237  -0.42141  -0.41550
 Alpha  occ. eigenvalues --   -0.41352  -0.40539  -0.39870  -0.38107  -0.37486
 Alpha  occ. eigenvalues --   -0.35684  -0.35188  -0.33911  -0.33288  -0.33150
 Alpha  occ. eigenvalues --   -0.32394  -0.31446  -0.30228  -0.29040  -0.27348
 Alpha  occ. eigenvalues --   -0.26968
 Alpha virt. eigenvalues --   -0.00240   0.03009   0.03660   0.04638   0.07063
 Alpha virt. eigenvalues --    0.07394   0.08528   0.10538   0.14920   0.15176
 Alpha virt. eigenvalues --    0.16159   0.16323   0.17433   0.18386   0.18623

 Mulliken atomic charges:
              1
     1  C   -0.198082
     2  C   -0.155283
     3  C    0.034825
     4  C    0.007452
     5  N   -0.434999
     6  C    0.031208
     7  C    0.296381
     8  C   -0.255112
     9  C    0.048817
    10  N   -0.493104
    11  C    0.711573
    12  N   -0.568075
    13  N   -0.799070
    14  C    0.289565
    15  C    0.119813
    16  C   -0.240104
    17  C   -0.190401
    18  C    0.355876
    19  C   -0.267125
    20  N   -0.767480
    21  C    0.598964
    22  C    0.017681
    23  C   -0.212774
    24  C   -0.226253
    25  C    0.113921
    26  C   -0.198585
    27  C   -0.182864
    28  C   -0.203229
    29  N   -0.417100
    30  C   -0.161839
    31  C   -0.181151
    32  N   -0.387115
    33  C   -0.350030
    34  C   -0.182619
    35  C   -0.171275
    36  O   -0.517336
    37  C   -0.608183
    38  H    0.185844
    39  H    0.185820
    40  H    0.200776
    41  H    0.181714
    42  H    0.180302
    43  H    0.189061
    44  H    0.369006
    45  H    0.160451
    46  H    0.215924
    47  H    0.195555
    48  H    0.359290
    49  H    0.185675
    50  H    0.166936
    51  H    0.181614
    52  H    0.196515
    53  H    0.176254
    54  H    0.134098
    55  H    0.160427
    56  H    0.126844
    57  H    0.158375
    58  H    0.169880
    59  H    0.136419
    60  H    0.167593
    61  H    0.169594
    62  H    0.161024
    63  H    0.170826
    64  H    0.126595
    65  H    0.179291
    66  H    0.177398
    67  H    0.183526
    68  H    0.190486
 Sum of Mulliken atomic charges =   0.00000

 Dipole moment (field-independent basis, Debye):
    X=             -2.3889    Y=              7.1728    Z=             -0.7505  Tot=              7.5973
 Quadrupole moment (field-independent basis, Debye-Ang):
   XX=           -191.5995   YY=           -196.7616   ZZ=           -216.9070
   XY=              2.9245   XZ=             -4.8837   YZ=             -3.3701

 Normal termination of Gaussian 09 at Tue Mar 10 16:31:17 2020.
