 Gaussian 09, Revision A.02,
 Gaussian 09:  EM64L-G09RevA.02 11-Jun-2009

 --------------------------------------------------
 #P opt=(,maxcycle=400) wB97XD/6-31G* MaxDisk=100GB
 --------------------------------------------------

 --------------------------------------------------------------
 MOLECULE0 Rotatable Bond Optimization on node37.bme.utexas.edu
 --------------------------------------------------------------
 Symbolic Z-matrix:
 Charge =  0 Multiplicity = 1

 SCF Done:  E(RwB97XD) =  -1581.55173029     A.U. after   16 cycles
 SCF Done:  E(RwB97XD) =  -1581.61605422     A.U. after   13 cycles
 SCF Done:  E(RwB97XD) =  -1581.70886763     A.U. after   14 cycles
 SCF Done:  E(RwB97XD) =  -1581.73892953     A.U. after   16 cycles
 SCF Done:  E(RwB97XD) =  -1581.75188978     A.U. after   16 cycles
 SCF Done:  E(RwB97XD) =  -1581.75215561     A.U. after   14 cycles
 SCF Done:  E(RwB97XD) =  -1581.75362932     A.U. after   14 cycles
 SCF Done:  E(RwB97XD) =  -1581.75545141     A.U. after   17 cycles
 SCF Done:  E(RwB97XD) =  -1581.75675070     A.U. after   15 cycles
 SCF Done:  E(RwB97XD) =  -1581.75613351     A.U. after   17 cycles
 SCF Done:  E(RwB97XD) =  -1581.76010500     A.U. after   13 cycles
 SCF Done:  E(RwB97XD) =  -1581.76006469     A.U. after   12 cycles
 SCF Done:  E(RwB97XD) =  -1581.76009065     A.U. after   12 cycles
 SCF Done:  E(RwB97XD) =  -1581.76008206     A.U. after   12 cycles
 SCF Done:  E(RwB97XD) =  -1581.76008954     A.U. after   12 cycles
 SCF Done:  E(RwB97XD) =  -1581.76007631     A.U. after   12 cycles
 SCF Done:  E(RwB97XD) =  -1581.76010227     A.U. after   12 cycles
 SCF Done:  E(RwB97XD) =  -1581.76009888     A.U. after   12 cycles
 SCF Done:  E(RwB97XD) =  -1581.76009939     A.U. after    9 cycles
 SCF Done:  E(RwB97XD) =  -1581.76009997     A.U. after    7 cycles
 Optimization completed.
    -- Stationary point found.

                         Standard orientation:
 ---------------------------------------------------------------------
 Center     Atomic      Atomic             Coordinates (Angstroms)
 Number     Number       Type             X           Y           Z
 ---------------------------------------------------------------------
      1          6           0        1.062595    4.846745    0.151735
      2          6           0        2.366898    4.384574    0.277910
      3          6           0        2.681951    3.109900   -0.190253
      4          6           0        1.650028    2.369184   -0.779538
      5          7           0        0.393549    2.792375   -0.898166
      6          6           0        0.114092    4.012940   -0.430570
      7          6           0        4.031394    2.510237   -0.041211
      8          6           0        5.200675    3.260644    0.040604
      9          6           0        6.381211    2.538866    0.211007
     10          7           0        6.429914    1.216902    0.292601
     11          6           0        5.242630    0.584950    0.185137
     12          7           0        4.058388    1.175721    0.019940
     13          7           0        5.320349   -0.777556    0.272830
     14          6           0        4.317571   -1.763547    0.243258
     15          6           0        4.683817   -3.089984    0.551824
     16          6           0        3.685010   -4.058778    0.528061
     17          6           0        2.356412   -3.782332    0.212856
     18          6           0        2.021242   -2.467758   -0.098516
     19          6           0        2.997787   -1.472287   -0.080585
     20          7           0        0.733553   -2.030470   -0.456896
     21          6           0       -0.465499   -2.682960   -0.364082
     22          6           0       -1.659604   -1.849546   -0.748087
     23          6           0       -1.652073   -0.453346   -0.829481
     24          6           0       -2.797639    0.233520   -1.210699
     25          6           0       -3.982286   -0.444477   -1.499431
     26          6           0       -3.982100   -1.839116   -1.417163
     27          6           0       -2.841154   -2.533721   -1.039840
     28          6           0       -5.245952    0.320911   -1.863842
     29          7           0       -6.139513    0.721559   -0.789949
     30          6           0       -5.655225    1.735673    0.139620
     31          6           0       -5.001103    1.157205    1.405616
     32          7           0       -5.842371    0.176144    2.085479
     33          6           0       -6.956665    0.758723    2.811224
     34          6           0       -6.230567   -0.874570    1.148515
     35          6           0       -6.901945   -0.328166   -0.122815
     36          8           0       -0.579063   -3.849039   -0.020841
     37          6           0        6.104832   -3.449359    0.904968
     38          1           0        0.779984    5.829039    0.514820
     39          1           0        3.120688    4.997859    0.763296
     40          1           0        1.868109    1.384205   -1.182641
     41          1           0       -0.919672    4.336276   -0.527406
     42          1           0        5.210241    4.340228   -0.044774
     43          1           0        7.336606    3.054395    0.285102
     44          1           0        6.266165   -1.093746    0.426478
     45          1           0        3.955185   -5.083989    0.768399
     46          1           0        1.602366   -4.556468    0.210220
     47          1           0        2.726943   -0.448921   -0.288340
     48          1           0        0.703140   -1.087689   -0.811191
     49          1           0       -0.775290    0.139748   -0.581249
     50          1           0       -2.761013    1.318250   -1.277351
     51          1           0       -4.892121   -2.387680   -1.650402
     52          1           0       -2.840741   -3.616209   -0.966277
     53          1           0       -4.958595    1.232913   -2.402339
     54          1           0       -5.835355   -0.284289   -2.563758
     55          1           0       -4.951534    2.390277   -0.387325
     56          1           0       -6.510816    2.362952    0.432219
     57          1           0       -4.762686    1.964915    2.108460
     58          1           0       -4.060066    0.660676    1.141855
     59          1           0       -7.700815    1.292523    2.194248
     60          1           0       -6.569776    1.468671    3.550658
     61          1           0       -7.483188   -0.034801    3.352828
     62          1           0       -6.905287   -1.572108    1.659315
     63          1           0       -5.323958   -1.429042    0.879555
     64          1           0       -7.886713    0.086290    0.140349
     65          1           0       -7.083792   -1.139737   -0.836631
     66          1           0        6.455261   -2.912558    1.796288
     67          1           0        6.804465   -3.229046    0.087175
     68          1           0        6.189683   -4.518099    1.116940
 ---------------------------------------------------------------------

 The electronic state is 1-A.
 Alpha  occ. eigenvalues --  -19.23285 -14.49309 -14.48399 -14.46770 -14.46125
 Alpha  occ. eigenvalues --  -14.45870 -14.43443 -14.42831 -10.41818 -10.40152
 Alpha  occ. eigenvalues --  -10.37643 -10.36360 -10.35299 -10.35231 -10.34642
 Alpha  occ. eigenvalues --  -10.34149 -10.33997 -10.33664 -10.32862 -10.32297
 Alpha  occ. eigenvalues --  -10.31874 -10.31132 -10.31059 -10.31051 -10.30943
 Alpha  occ. eigenvalues --  -10.30744 -10.30399 -10.30385 -10.30363 -10.30324
 Alpha  occ. eigenvalues --  -10.30175 -10.30162 -10.30107 -10.30036 -10.29517
 Alpha  occ. eigenvalues --  -10.28711 -10.28312  -1.13480  -1.12315  -1.06374
 Alpha  occ. eigenvalues --   -1.04591  -1.03635  -1.03601  -1.00739  -0.99342
 Alpha  occ. eigenvalues --   -0.96055  -0.94693  -0.93142  -0.89805  -0.88078
 Alpha  occ. eigenvalues --   -0.87399  -0.86251  -0.85199  -0.84534  -0.83772
 Alpha  occ. eigenvalues --   -0.81725  -0.79531  -0.78272  -0.77717  -0.76339
 Alpha  occ. eigenvalues --   -0.73952  -0.73055  -0.72983  -0.72644  -0.70874
 Alpha  occ. eigenvalues --   -0.70324  -0.69544  -0.67989  -0.66453  -0.65241
 Alpha  occ. eigenvalues --   -0.63728  -0.63328  -0.62283  -0.61852  -0.60211
 Alpha  occ. eigenvalues --   -0.58870  -0.58003  -0.57564  -0.56467  -0.56202
 Alpha  occ. eigenvalues --   -0.55781  -0.55079  -0.54903  -0.54735  -0.54337
 Alpha  occ. eigenvalues --   -0.53657  -0.53209  -0.52988  -0.52413  -0.52089
 Alpha  occ. eigenvalues --   -0.51888  -0.51560  -0.51333  -0.50923  -0.50707
 Alpha  occ. eigenvalues --   -0.50518  -0.50386  -0.49943  -0.49437  -0.48335
 Alpha  occ. eigenvalues --   -0.47287  -0.46713  -0.46540  -0.46443  -0.46060
 Alpha  occ. eigenvalues --   -0.45583  -0.44956  -0.44607  -0.43944  -0.43745
 Alpha  occ. eigenvalues --   -0.43354  -0.43151  -0.42135  -0.41688  -0.41267
 Alpha  occ. eigenvalues --   -0.40729  -0.40633  -0.39893  -0.38212  -0.37562
 Alpha  occ. eigenvalues --   -0.35835  -0.35358  -0.33918  -0.33576  -0.33265
 Alpha  occ. eigenvalues --   -0.32900  -0.32017  -0.30633  -0.29158  -0.27015
 Alpha  occ. eigenvalues --   -0.24765
 Alpha virt. eigenvalues --   -0.00255   0.02896   0.03202   0.04358   0.06534
 Alpha virt. eigenvalues --    0.07197   0.08455   0.10621   0.13528   0.14908
 Alpha virt. eigenvalues --    0.15916   0.16359   0.17277   0.17674   0.18731

 Mulliken atomic charges:
              1
     1  C   -0.195424
     2  C   -0.154964
     3  C    0.039089
     4  C    0.014726
     5  N   -0.432864
     6  C    0.028069
     7  C    0.290587
     8  C   -0.257018
     9  C    0.050134
    10  N   -0.494744
    11  C    0.719126
    12  N   -0.566293
    13  N   -0.810815
    14  C    0.288556
    15  C    0.120454
    16  C   -0.241435
    17  C   -0.187656
    18  C    0.363962
    19  C   -0.270409
    20  N   -0.780353
    21  C    0.612192
    22  C    0.017136
    23  C   -0.210695
    24  C   -0.226436
    25  C    0.160051
    26  C   -0.223209
    27  C   -0.178184
    28  C   -0.263885
    29  N   -0.381371
    30  C   -0.184386
    31  C   -0.182453
    32  N   -0.383735
    33  C   -0.349379
    34  C   -0.183810
    35  C   -0.185959
    36  O   -0.520948
    37  C   -0.609392
    38  H    0.186818
    39  H    0.187375
    40  H    0.189811
    41  H    0.182083
    42  H    0.181433
    43  H    0.189690
    44  H    0.370000
    45  H    0.160499
    46  H    0.213601
    47  H    0.204412
    48  H    0.362032
    49  H    0.178606
    50  H    0.170220
    51  H    0.164348
    52  H    0.201547
    53  H    0.169247
    54  H    0.169589
    55  H    0.149563
    56  H    0.158714
    57  H    0.150190
    58  H    0.173056
    59  H    0.134263
    60  H    0.165893
    61  H    0.167537
    62  H    0.153477
    63  H    0.173258
    64  H    0.159243
    65  H    0.152612
    66  H    0.183084
    67  H    0.178551
    68  H    0.190984
 Sum of Mulliken atomic charges =   0.00000

 Dipole moment (field-independent basis, Debye):
    X=              2.2677    Y=              6.0696    Z=             -0.1778  Tot=              6.4819
 Quadrupole moment (field-independent basis, Debye-Ang):
   XX=           -188.5192   YY=           -195.1548   ZZ=           -221.5995
   XY=              6.1884   XZ=              4.3164   YZ=              5.5315

 Normal termination of Gaussian 09 at Thu Apr  9 01:15:21 2020.
