                               Psi4 1.3.2 release

  ==> Input File <==

--------------------------------------------------------------------------
molecule {
0 1
 C    0.964176    4.791218   -2.344470
 C    2.290376    4.559130   -1.956003
 C    2.699602    3.261046   -1.593211
 C    1.706203    2.254653   -1.678540
 N    0.435743    2.455369   -2.051561
 C    0.078004    3.708444   -2.372152
 C    4.100459    2.913815   -1.155074
 C    5.203454    3.782504   -1.199566
 C    6.424402    3.240344   -0.780435
 N    6.582493    1.991620   -0.346741
 C    5.467810    1.233437   -0.320372
 N    4.261976    1.656627   -0.702880
 N    5.640482   -0.058901    0.143072
 C    4.759685   -1.194339    0.264691
 C    5.314427   -2.497969    0.445813
 C    4.416596   -3.576243    0.520307
 C    3.026183   -3.443562    0.430424
 C    2.490841   -2.158550    0.294037
 C    3.365620   -1.063361    0.213875
 N    1.098011   -1.841587    0.194885
 C   -0.013194   -2.641485    0.056421
 C   -1.314603   -1.944948   -0.292708
 C   -1.395945   -0.825743   -1.137254
 C   -2.620188   -0.185714   -1.345381
 C   -3.813641   -0.639269   -0.743463
 C   -3.720373   -1.811270    0.028513
 C   -2.501472   -2.454783    0.255558
 C   -5.093890    0.184336   -0.929010
 N   -6.155435    0.405576    0.071042
 C   -5.860212    1.354135    1.173572
 C   -5.439595    0.724174    2.524368
 N   -6.394140   -0.292628    3.027750
 C   -7.594134    0.204413    3.711050
 C   -6.593378   -1.306464    1.967150
 C   -6.992153   -0.702042    0.593248
 O    0.019135   -3.851333    0.219664
 C    6.808344   -2.764589    0.524961
 H    0.624037    5.785462   -2.618588
 H    2.977333    5.401134   -1.924915
 H    1.952771    1.220875   -1.458305
 H   -0.961872    3.836658   -2.668878
 H    5.166140    4.805496   -1.553538
 H    7.344867    3.823293   -0.789678
 H    6.616200   -0.210803    0.349123
 H    4.808223   -4.585152    0.643966
 H    2.368843   -4.302770    0.475619
 H    2.954926   -0.072153    0.116904
 H    0.902433   -0.851346    0.149264
 H   -0.495529   -0.433951   -1.605239
 H   -2.626668    0.709408   -1.968193
 H   -4.615447   -2.273790    0.426105
 H   -2.451785   -3.355220    0.863146
 H   -4.769302    1.197206   -1.207804
 H   -5.612722   -0.268085   -1.787579
 H   -4.800109    2.289562    0.753535
 H   -7.054114    2.142560    1.394869
 H   -5.271632    1.508759    3.314256
 H   -4.091026   -0.004929    2.301212
 H   -8.238498    0.758088    3.019140
 H   -7.311028    0.866773    4.537191
 H   -8.163543   -0.632325    4.131727
 H   -7.559984   -2.172583    2.365374
 H   -5.811312   -1.801552    1.911528
 H   -8.391240   -0.100881    0.790274
 H   -7.116220   -1.614036   -0.289069
 H    7.286491   -2.252891    1.372422
 H    7.315533   -2.427890   -0.383594
 H    7.041916   -3.826636    0.635885
}
memory 20GB
set_num_threads(6)
psi4_io.set_default_path("/scratch/bdw2292")
set freeze_core True
E, wfn = energy('mp2/6-311++G**',return_wfn=True)
oeprop(wfn,"WIBERG_LOWDIN_INDICES")
clean()
--------------------------------------------------------------------------

    Molecular point group: c1

    Geometry (in Angstrom), charge = 0, multiplicity = 1:

       Center              X                  Y                   Z               Mass
    ------------   -----------------  -----------------  -----------------  -----------------
         C            0.735955105937     4.714107599351    -2.266363402758    12.000000000000
         C            2.062155105937     4.482019599351    -1.877896402758    12.000000000000
         C            2.471381105937     3.183935599351    -1.515104402758    12.000000000000
         C            1.477982105937     2.177542599351    -1.600433402758    12.000000000000
         N            0.207522105937     2.378258599351    -1.973454402758    14.003074004430
         C           -0.150216894063     3.631333599351    -2.294045402758    12.000000000000
         C            3.872238105937     2.836704599351    -1.076967402758    12.000000000000
         C            4.975233105937     3.705393599351    -1.121459402758    12.000000000000
         C            6.196181105937     3.163233599351    -0.702328402758    12.000000000000
         N            6.354272105937     1.914509599351    -0.268634402758    14.003074004430
         C            5.239589105937     1.156326599351    -0.242265402758    12.000000000000
         N            4.033755105937     1.579516599351    -0.624773402758    14.003074004430
         N            5.412261105937    -0.136011400649     0.221178597242    14.003074004430
         C            4.531464105937    -1.271449400649     0.342797597242    12.000000000000
         C            5.086206105937    -2.575079400649     0.523919597242    12.000000000000
         C            4.188375105937    -3.653353400649     0.598413597242    12.000000000000
         C            2.797962105937    -3.520672400649     0.508530597242    12.000000000000
         C            2.262620105937    -2.235660400649     0.372143597242    12.000000000000
         C            3.137399105937    -1.140471400649     0.291981597242    12.000000000000
         N            0.869790105937    -1.918697400649     0.272991597242    14.003074004430
         C           -0.241414894063    -2.718595400649     0.134527597242    12.000000000000
         C           -1.542823894063    -2.022058400649    -0.214601402758    12.000000000000
         C           -1.624165894063    -0.902853400649    -1.059147402758    12.000000000000
         C           -2.848408894063    -0.262824400649    -1.267274402758    12.000000000000
         C           -4.041861894063    -0.716379400649    -0.665356402758    12.000000000000
         C           -3.948593894063    -1.888380400649     0.106619597242    12.000000000000
         C           -2.729692894063    -2.531893400649     0.333664597242    12.000000000000
         C           -5.322110894063     0.107225599351    -0.850903402758    12.000000000000
         N           -6.383655894063     0.328465599351     0.149148597242    14.003074004430
         C           -6.088432894063     1.277024599351     1.251678597242    12.000000000000
         C           -5.667815894063     0.647063599351     2.602474597242    12.000000000000
         N           -6.622360894063    -0.369738400649     3.105856597242    14.003074004430
         C           -7.822354894063     0.127302599351     3.789156597242    12.000000000000
         C           -6.821598894063    -1.383574400649     2.045256597242    12.000000000000
         C           -7.220373894063    -0.779152400649     0.671354597242    12.000000000000
         O           -0.209085894063    -3.928443400649     0.297770597242    15.994914619570
         C            6.580123105937    -2.841699400649     0.603067597242    12.000000000000
         H            0.395816105937     5.708351599351    -2.540481402758     1.007825032230
         H            2.749112105937     5.324023599351    -1.846808402758     1.007825032230
         H            1.724550105937     1.143764599351    -1.380198402758     1.007825032230
         H           -1.190092894063     3.759547599351    -2.590771402758     1.007825032230
         H            4.937919105937     4.728385599351    -1.475431402758     1.007825032230
         H            7.116646105937     3.746182599351    -0.711571402758     1.007825032230
         H            6.387979105937    -0.287913400649     0.427229597242     1.007825032230
         H            4.580002105937    -4.662262400649     0.722072597242     1.007825032230
         H            2.140622105937    -4.379880400649     0.553725597242     1.007825032230
         H            2.726705105937    -0.149263400649     0.195010597242     1.007825032230
         H            0.674212105937    -0.928456400649     0.227370597242     1.007825032230
         H           -0.723749894063    -0.511061400649    -1.527132402758     1.007825032230
         H           -2.854888894063     0.632297599351    -1.890086402758     1.007825032230
         H           -4.843667894063    -2.350900400649     0.504211597242     1.007825032230
         H           -2.680005894063    -3.432330400649     0.941252597242     1.007825032230
         H           -4.997522894063     1.120095599351    -1.129697402758     1.007825032230
         H           -5.840942894063    -0.345195400649    -1.709472402758     1.007825032230
         H           -5.028329894063     2.212451599351     0.831641597242     1.007825032230
         H           -7.282334894063     2.065449599351     1.472975597242     1.007825032230
         H           -5.499852894063     1.431648599351     3.392362597242     1.007825032230
         H           -4.319246894063    -0.082039400649     2.379318597242     1.007825032230
         H           -8.466718894063     0.680977599351     3.097246597242     1.007825032230
         H           -7.539248894063     0.789662599351     4.615297597242     1.007825032230
         H           -8.391763894063    -0.709435400649     4.209833597242     1.007825032230
         H           -7.788204894063    -2.249693400649     2.443480597242     1.007825032230
         H           -6.039532894063    -1.878662400649     1.989634597242     1.007825032230
         H           -8.619460894063    -0.177991400649     0.868380597242     1.007825032230
         H           -7.344440894063    -1.691146400649    -0.210962402758     1.007825032230
         H            7.058270105937    -2.330001400649     1.450528597242     1.007825032230
         H            7.087312105937    -2.505000400649    -0.305487402758     1.007825032230
         H            6.813695105937    -3.903746400649     0.713991597242     1.007825032230

  Charge       = 0
  Multiplicity = 1
  Basis Set: 6-311++G**
    Blend: 6-311++G**
  Basis Set: (6-311++G** AUX)
    Blend: AUG-CC-PVTZ-JKFIT

    Orbital Energies [Eh]
    ---------------------

    Doubly Occupied:

       1A    -20.520638     2A    -15.603719     3A    -15.600822
       4A    -15.586520     5A    -15.578810     6A    -15.573336
       7A    -15.568575     8A    -15.558072     9A    -11.374349
      10A    -11.363159    11A    -11.336202    12A    -11.334482
      13A    -11.326790    14A    -11.313680    15A    -11.309786
      16A    -11.301542    17A    -11.301065    18A    -11.300150
      19A    -11.292311    20A    -11.289345    21A    -11.280260
      22A    -11.279033    23A    -11.272638    24A    -11.265729
      25A    -11.260023    26A    -11.253817    27A    -11.252436
      28A    -11.252199    29A    -11.249390    30A    -11.247803
      31A    -11.246694    32A    -11.244285    33A    -11.242183
      34A    -11.239330    35A    -11.233628    36A    -11.230791
      37A    -11.224128    38A     -1.385240    39A     -1.345117
      40A     -1.278133    41A     -1.250562    42A     -1.249107
      43A     -1.241439    44A     -1.209486    45A     -1.204480
      46A     -1.160711    47A     -1.139351    48A     -1.115899
      49A     -1.075188    50A     -1.059397    51A     -1.048174
      52A     -1.037669    53A     -1.021469    54A     -1.007591
      55A     -1.007252    56A     -0.980288    57A     -0.949465
      58A     -0.932387    59A     -0.926380    60A     -0.900812
      61A     -0.872592    62A     -0.865839    63A     -0.857896
      64A     -0.842948    65A     -0.837436    66A     -0.833241
      67A     -0.825530    68A     -0.807153    69A     -0.778435
      70A     -0.754409    71A     -0.738167    72A     -0.730951
      73A     -0.727943    74A     -0.721440    75A     -0.698562
      76A     -0.682464    77A     -0.670188    78A     -0.662696
      79A     -0.656922    80A     -0.653741    81A     -0.651419
      82A     -0.638006    83A     -0.636180    84A     -0.631776
      85A     -0.629112    86A     -0.621313    87A     -0.620113
      88A     -0.612707    89A     -0.606865    90A     -0.602644
      91A     -0.600237    92A     -0.595034    93A     -0.591573
      94A     -0.589245    95A     -0.585637    96A     -0.581969
      97A     -0.579825    98A     -0.574936    99A     -0.564235
     100A     -0.561264   101A     -0.549149   102A     -0.546650
     103A     -0.544395   104A     -0.529399   105A     -0.523022
     106A     -0.522248   107A     -0.513481   108A     -0.508206
     109A     -0.505582   110A     -0.501666   111A     -0.495269
     112A     -0.494057   113A     -0.484151   114A     -0.478666
     115A     -0.451640   116A     -0.449864   117A     -0.442406
     118A     -0.437067   119A     -0.426665   120A     -0.425192
     121A     -0.414114   122A     -0.408494   123A     -0.400115
     124A     -0.381803   125A     -0.373600   126A     -0.346085
     127A     -0.342978   128A     -0.336051   129A     -0.321270
     130A     -0.313951   131A     -0.289591

  @DF-RHF Final Energy: -1572.28044750397976

   => Energetics <=

    Nuclear Repulsion Energy =           3664.6838171366325696
    One-Electron Energy =               -9427.3629765882560605
    Two-Electron Energy =                4190.3987119476432781
    Total Energy =                      -1572.2804475039802128

  Dipole Moment: [D]
     X:     1.5293      Y:     6.9082      Z:    -1.2929     Total:     7.1926

  Basis Set: (6-311++G** AUX)
    Blend: AUG-CC-PVTZ-RI
	 Reference Energy          =   -1572.2804475039797580 [Eh]
	 Singles Energy            =      -0.0000000000000000 [Eh]
	 Same-Spin Energy          =      -1.4693147222575322 [Eh]
	 Opposite-Spin Energy      =      -4.0470200645845633 [Eh]
	 Correlation Energy        =      -5.5163347868420960 [Eh]
	 Total Energy              =   -1577.7967822908219659 [Eh]

	 ================> DF-SCS-MP2 Energies <==================
	-----------------------------------------------------------
	 SCS Same-Spin Scale       =       0.3333333333333333 [-]
	 SCS Opposite-Spin Scale   =       1.2000000000000000 [-]
	 SCS Same-Spin Energy      =      -0.4897715740858440 [Eh]
	 SCS Opposite-Spin Energy  =      -4.8564240775014760 [Eh]
	 SCS Correlation Energy    =      -5.3461956515873199 [Eh]
	 SCS Total Energy          =   -1577.6266431555670806 [Eh]
	-----------------------------------------------------------

*** Psi4 exiting successfully. Buy a developer a beer!
