                               Psi4 1.3.2 release

  ==> Input File <==

--------------------------------------------------------------------------
molecule {
0 1
 C    0.098999    4.301207   -2.013197
 C    1.313541    4.258669   -1.315151
 C    1.956358    3.024064   -1.100336
 C    1.313232    1.886695   -1.650222
 N    0.146386    1.906523   -2.308194
 C   -0.443785    3.099246   -2.481598
 C    3.227958    2.863681   -0.305727
 C    3.940612    3.895947    0.326337
 C    5.051277    3.497389    1.082470
 N    5.449157    2.234292    1.229043
 C    4.708937    1.313433    0.581920
 N    3.643511    1.593293   -0.167896
 N    5.099104   -0.001535    0.722781
 C    4.385355   -1.236687    0.519402
 C    5.105135   -2.462504    0.389372
 C    4.353996   -3.629339    0.167229
 C    2.960109   -3.649004    0.035501
 C    2.265674   -2.442433    0.171364
 C    2.986501   -1.269430    0.444044
 N    0.853722   -2.266578    0.025928
 C   -0.136667   -3.117999   -0.406710
 C   -1.488768   -2.490713   -0.690841
 C   -1.634066   -1.204214   -1.238868
 C   -2.904008   -0.654273   -1.422984
 C   -4.070506   -1.369272   -1.092888
 C   -3.910193   -2.672948   -0.583742
 C   -2.643892   -3.234019   -0.399514
 C   -5.452661   -0.727289   -1.225775
 N   -5.958739    0.132847   -0.141696
 C   -5.405768    1.497149    0.022695
 C   -4.228852    1.603055    1.027880
 N   -4.524877    1.027437    2.362466
 C   -5.268090    1.879585    3.297856
 C   -5.031108   -0.355909    2.185360
 C   -6.210435   -0.474642    1.185166
 O    0.035730   -4.318925   -0.544266
 C    6.619954   -2.548121    0.466161
 H   -0.417166    5.240880   -2.186469
 H    1.731449    5.189492   -0.939422
 H    1.761969    0.901439   -1.550088
 H   -1.387347    3.078023   -3.025200
 H    3.671255    4.943900    0.281334
 H    5.668730    4.218869    1.616710
 H    6.086323   -0.048737    0.925095
 H    4.873543   -4.581346    0.064668
 H    2.421278   -4.562982   -0.181542
 H    2.449882   -0.341174    0.565918
 H    0.537324   -1.324583    0.208140
 H   -0.752510   -0.630223   -1.517553
 H   -2.978778    0.357172   -1.821677
 H   -4.786885   -3.256915   -0.305146
 H   -2.532508   -4.241299   -0.005548
 H   -5.465990   -0.122832   -2.143478
 H   -6.192888   -1.528988   -1.358333
 H   -5.113021    1.951027   -1.022899
 H   -6.512332    2.346938    0.547903
 H   -3.884866    2.891767    1.181872
 H   -3.246522    1.022830    0.592578
 H   -6.281346    2.075444    2.929545
 H   -4.749538    2.835640    3.432837
 H   -5.336525    1.394409    4.278326
 H   -5.356774   -0.821128    3.303971
 H   -3.931269   -1.139734    1.706330
 H   -7.360784    0.227317    1.768389
 H   -6.545332   -1.633373    1.059387
 H    7.013694   -2.220809    1.439138
 H    7.088187   -1.923121   -0.299279
 H    6.992443   -3.563643    0.308411
}
memory 20GB
set_num_threads(6)
psi4_io.set_default_path("/scratch/bdw2292")
set freeze_core True
E, wfn = energy('mp2/6-311++G**',return_wfn=True)
oeprop(wfn,"WIBERG_LOWDIN_INDICES")
clean()
--------------------------------------------------------------------------

    Molecular point group: c1

    Geometry (in Angstrom), charge = 0, multiplicity = 1:

       Center              X                  Y                   Z               Mass
    ------------   -----------------  -----------------  -----------------  -----------------
         C           -0.004834549916     4.306348042688    -1.966664302556    12.000000000000
         C            1.209707450084     4.263810042688    -1.268618302556    12.000000000000
         C            1.852524450084     3.029205042688    -1.053803302556    12.000000000000
         C            1.209398450084     1.891836042688    -1.603689302556    12.000000000000
         N            0.042552450084     1.911664042688    -2.261661302556    14.003074004430
         C           -0.547618549916     3.104387042688    -2.435065302556    12.000000000000
         C            3.124124450084     2.868822042688    -0.259194302556    12.000000000000
         C            3.836778450084     3.901088042688     0.372869697444    12.000000000000
         C            4.947443450084     3.502530042688     1.129002697444    12.000000000000
         N            5.345323450084     2.239433042688     1.275575697444    14.003074004430
         C            4.605103450084     1.318574042688     0.628452697444    12.000000000000
         N            3.539677450084     1.598434042688    -0.121363302556    14.003074004430
         N            4.995270450084     0.003606042688     0.769313697444    14.003074004430
         C            4.281521450084    -1.231545957312     0.565934697444    12.000000000000
         C            5.001301450084    -2.457362957312     0.435904697444    12.000000000000
         C            4.250162450084    -3.624197957312     0.213761697444    12.000000000000
         C            2.856275450084    -3.643862957312     0.082033697444    12.000000000000
         C            2.161840450084    -2.437291957312     0.217896697444    12.000000000000
         C            2.882667450084    -1.264288957312     0.490576697444    12.000000000000
         N            0.749888450084    -2.261436957312     0.072460697444    14.003074004430
         C           -0.240500549916    -3.112857957312    -0.360177302556    12.000000000000
         C           -1.592601549916    -2.485571957312    -0.644308302556    12.000000000000
         C           -1.737899549916    -1.199072957312    -1.192335302556    12.000000000000
         C           -3.007841549916    -0.649131957312    -1.376451302556    12.000000000000
         C           -4.174339549916    -1.364130957312    -1.046355302556    12.000000000000
         C           -4.014026549916    -2.667806957312    -0.537209302556    12.000000000000
         C           -2.747725549916    -3.228877957312    -0.352981302556    12.000000000000
         C           -5.556494549916    -0.722147957312    -1.179242302556    12.000000000000
         N           -6.062572549916     0.137988042688    -0.095163302556    14.003074004430
         C           -5.509601549916     1.502290042688     0.069227697444    12.000000000000
         C           -4.332685549916     1.608196042688     1.074412697444    12.000000000000
         N           -4.628710549916     1.032578042688     2.408998697444    14.003074004430
         C           -5.371923549916     1.884726042688     3.344388697444    12.000000000000
         C           -5.134941549916    -0.350767957312     2.231892697444    12.000000000000
         C           -6.314268549916    -0.469500957312     1.231698697444    12.000000000000
         O           -0.068103549916    -4.313783957312    -0.497733302556    15.994914619570
         C            6.516120450084    -2.542979957312     0.512693697444    12.000000000000
         H           -0.520999549916     5.246021042688    -2.139936302556     1.007825032230
         H            1.627615450084     5.194633042688    -0.892889302556     1.007825032230
         H            1.658135450084     0.906580042688    -1.503555302556     1.007825032230
         H           -1.491180549916     3.083164042688    -2.978667302556     1.007825032230
         H            3.567421450084     4.949041042688     0.327866697444     1.007825032230
         H            5.564896450084     4.224010042688     1.663242697444     1.007825032230
         H            5.982489450084    -0.043595957312     0.971627697444     1.007825032230
         H            4.769709450084    -4.576204957312     0.111200697444     1.007825032230
         H            2.317444450084    -4.557840957312    -0.135009302556     1.007825032230
         H            2.346048450084    -0.336032957312     0.612450697444     1.007825032230
         H            0.433490450084    -1.319441957312     0.254672697444     1.007825032230
         H           -0.856343549916    -0.625081957312    -1.471020302556     1.007825032230
         H           -3.082611549916     0.362313042688    -1.775144302556     1.007825032230
         H           -4.890718549916    -3.251773957312    -0.258613302556     1.007825032230
         H           -2.636341549916    -4.236157957312     0.040984697444     1.007825032230
         H           -5.569823549916    -0.117690957312    -2.096945302556     1.007825032230
         H           -6.296721549916    -1.523846957312    -1.311800302556     1.007825032230
         H           -5.216854549916     1.956168042688    -0.976366302556     1.007825032230
         H           -6.616165549916     2.352079042688     0.594435697444     1.007825032230
         H           -3.988699549916     2.896908042688     1.228404697444     1.007825032230
         H           -3.350355549916     1.027971042688     0.639110697444     1.007825032230
         H           -6.385179549916     2.080585042688     2.976077697444     1.007825032230
         H           -4.853371549916     2.840781042688     3.479369697444     1.007825032230
         H           -5.440358549916     1.399550042688     4.324858697444     1.007825032230
         H           -5.460607549916    -0.815986957312     3.350503697444     1.007825032230
         H           -4.035102549916    -1.134592957312     1.752862697444     1.007825032230
         H           -7.464617549916     0.232458042688     1.814921697444     1.007825032230
         H           -6.649165549916    -1.628231957312     1.105919697444     1.007825032230
         H            6.909860450084    -2.215667957312     1.485670697444     1.007825032230
         H            6.984353450084    -1.917979957312    -0.252746302556     1.007825032230
         H            6.888609450084    -3.558501957312     0.354943697444     1.007825032230

  Charge       = 0
  Multiplicity = 1
  Basis Set: 6-311++G**
    Blend: 6-311++G**
  Basis Set: (6-311++G** AUX)
    Blend: AUG-CC-PVTZ-JKFIT

    Orbital Energies [Eh]
    ---------------------

    Doubly Occupied:

       1A    -20.522098     2A    -15.601589     3A    -15.600121
       4A    -15.586026     5A    -15.574336     6A    -15.569613
       7A    -15.568155     8A    -15.554662     9A    -11.372041
      10A    -11.364449    11A    -11.333656    12A    -11.313858
      13A    -11.312645    14A    -11.311326    15A    -11.306809
      16A    -11.301436    17A    -11.301126    18A    -11.298661
      19A    -11.297753    20A    -11.293165    21A    -11.289348
      22A    -11.279780    23A    -11.278029    24A    -11.265694
      25A    -11.257364    26A    -11.257190    27A    -11.254194
      28A    -11.253137    29A    -11.250441    30A    -11.246533
      31A    -11.246303    32A    -11.246160    33A    -11.246045
      34A    -11.239758    35A    -11.233686    36A    -11.232431
      37A    -11.224412    38A     -1.386445    39A     -1.346105
      40A     -1.277610    41A     -1.251856    42A     -1.245258
      43A     -1.241947    44A     -1.210388    45A     -1.199515
      46A     -1.162075    47A     -1.139585    48A     -1.115401
      49A     -1.074892    50A     -1.059782    51A     -1.047904
      52A     -1.037700    53A     -1.024081    54A     -1.007657
      55A     -0.993015    56A     -0.977235    57A     -0.947119
      58A     -0.928225    59A     -0.926384    60A     -0.900986
      61A     -0.871819    62A     -0.865812    63A     -0.857741
      64A     -0.842214    65A     -0.835055    66A     -0.827374
      67A     -0.824952    68A     -0.805642    69A     -0.778338
      70A     -0.754566    71A     -0.738599    72A     -0.730827
      73A     -0.721264    74A     -0.705384    75A     -0.699329
      76A     -0.681923    77A     -0.672812    78A     -0.667561
      79A     -0.657844    80A     -0.655853    81A     -0.652875
      82A     -0.642128    83A     -0.638098    84A     -0.631885
      85A     -0.621360    86A     -0.615229    87A     -0.612905
      88A     -0.608438    89A     -0.606474    90A     -0.603023
      91A     -0.599657    92A     -0.596860    93A     -0.591368
      94A     -0.587801    95A     -0.582755    96A     -0.581321
      97A     -0.579532    98A     -0.575419    99A     -0.565467
     100A     -0.560383   101A     -0.547692   102A     -0.543799
     103A     -0.530622   104A     -0.528712   105A     -0.525270
     106A     -0.522683   107A     -0.513419   108A     -0.510134
     109A     -0.508468   110A     -0.505236   111A     -0.503736
     112A     -0.494750   113A     -0.487199   114A     -0.479238
     115A     -0.456215   116A     -0.451490   117A     -0.442218
     118A     -0.437304   119A     -0.427474   120A     -0.425260
     121A     -0.414301   122A     -0.412314   123A     -0.400141
     124A     -0.382642   125A     -0.374561   126A     -0.345872
     127A     -0.345359   128A     -0.343039   129A     -0.315273
     130A     -0.312801   131A     -0.290137

  @DF-RHF Final Energy: -1572.37108182679481

   => Energetics <=

    Nuclear Repulsion Energy =           3779.0745608140300646
    One-Electron Energy =               -9656.4704331558459671
    Two-Electron Energy =                4305.0247905150217775
    Total Energy =                      -1572.3710818267945797

  Dipole Moment: [D]
     X:     0.5409      Y:     6.7837      Z:     0.1447     Total:     6.8068

  Basis Set: (6-311++G** AUX)
    Blend: AUG-CC-PVTZ-RI
	 Reference Energy          =   -1572.3710818267948071 [Eh]
	 Singles Energy            =      -0.0000000000000000 [Eh]
	 Same-Spin Energy          =      -1.4715396669780358 [Eh]
	 Opposite-Spin Energy      =      -4.0476418852907203 [Eh]
	 Correlation Energy        =      -5.5191815522687566 [Eh]
	 Total Energy              =   -1577.8902633790635264 [Eh]

	 ================> DF-SCS-MP2 Energies <==================
	-----------------------------------------------------------
	 SCS Same-Spin Scale       =       0.3333333333333333 [-]
	 SCS Opposite-Spin Scale   =       1.2000000000000000 [-]
	 SCS Same-Spin Energy      =      -0.4905132223260119 [Eh]
	 SCS Opposite-Spin Energy  =      -4.8571702623488644 [Eh]
	 SCS Correlation Energy    =      -5.3476834846748762 [Eh]
	 SCS Total Energy          =   -1577.7187653114697241 [Eh]
	-----------------------------------------------------------

*** Psi4 exiting successfully. Buy a developer a beer!
