 Gaussian 09, Revision A.02,
 Gaussian 09:  EM64L-G09RevA.02 11-Jun-2009

 --------------------------------------------------
 #P opt=(,maxcycle=400) wB97XD/6-31G* MaxDisk=100GB
 --------------------------------------------------

 -----------------------------------------------------------------
 MOLECULE0 Rotatable Bond Optimization on g2-node38.bme.utexas.edu
 -----------------------------------------------------------------
 Symbolic Z-matrix:
 Charge =  0 Multiplicity = 1

 SCF Done:  E(RwB97XD) =  -1581.50934991     A.U. after   16 cycles
 SCF Done:  E(RwB97XD) =  -1581.57067250     A.U. after   13 cycles
 SCF Done:  E(RwB97XD) =  -1581.67099841     A.U. after   14 cycles
 SCF Done:  E(RwB97XD) =  -1581.72151448     A.U. after   14 cycles
 SCF Done:  E(RwB97XD) =  -1581.74593981     A.U. after   16 cycles
 SCF Done:  E(RwB97XD) =  -1581.75417715     A.U. after   17 cycles
 SCF Done:  E(RwB97XD) =  -1581.75890228     A.U. after   17 cycles
 SCF Done:  E(RwB97XD) =  -1581.75994398     A.U. after   17 cycles
 SCF Done:  E(RwB97XD) =  -1581.76063056     A.U. after   16 cycles
 SCF Done:  E(RwB97XD) =  -1581.76074347     A.U. after   14 cycles
 SCF Done:  E(RwB97XD) =  -1581.76161039     A.U. after   11 cycles
 SCF Done:  E(RwB97XD) =  -1581.76162052     A.U. after   12 cycles
 SCF Done:  E(RwB97XD) =  -1581.76162395     A.U. after   11 cycles
 SCF Done:  E(RwB97XD) =  -1581.76162834     A.U. after   11 cycles
 SCF Done:  E(RwB97XD) =  -1581.76163029     A.U. after   10 cycles
 SCF Done:  E(RwB97XD) =  -1581.76163209     A.U. after   10 cycles
 SCF Done:  E(RwB97XD) =  -1581.76163333     A.U. after    8 cycles
 SCF Done:  E(RwB97XD) =  -1581.76163347     A.U. after   10 cycles
 SCF Done:  E(RwB97XD) =  -1581.76163384     A.U. after    7 cycles
 SCF Done:  E(RwB97XD) =  -1581.76163406     A.U. after    7 cycles
 Optimization completed.
    -- Stationary point found.

                         Standard orientation:
 ---------------------------------------------------------------------
 Center     Atomic      Atomic             Coordinates (Angstroms)
 Number     Number       Type             X           Y           Z
 ---------------------------------------------------------------------
      1          6           0       -1.227541    4.807017   -0.670512
      2          6           0       -2.528596    4.351266   -0.496213
      3          6           0       -2.733680    3.055628   -0.025217
      4          6           0       -1.598250    2.284540    0.257562
      5          7           0       -0.346139    2.704037    0.085673
      6          6           0       -0.175283    3.946653   -0.376003
      7          6           0       -4.081851    2.457659    0.141011
      8          6           0       -5.244894    3.198149    0.333165
      9          6           0       -6.426394    2.465224    0.439589
     10          7           0       -6.481800    1.141430    0.382778
     11          6           0       -5.295628    0.521534    0.217242
     12          7           0       -4.114797    1.124166    0.085285
     13          7           0       -5.362223   -0.843993    0.184545
     14          6           0       -4.331847   -1.801553    0.129145
     15          6           0       -4.639448   -3.128028    0.493078
     16          6           0       -3.609778   -4.063383    0.456387
     17          6           0       -2.301769   -3.748494    0.095426
     18          6           0       -2.023092   -2.433210   -0.266958
     19          6           0       -3.040190   -1.478163   -0.272070
     20          7           0       -0.750752   -1.955048   -0.628274
     21          6           0        0.465181   -2.583106   -0.558637
     22          6           0        1.634412   -1.685090   -0.853465
     23          6           0        2.790470   -2.277621   -1.364135
     24          6           0        3.899094   -1.500703   -1.670755
     25          6           0        3.895093   -0.120330   -1.451841
     26          6           0        2.739006    0.462543   -0.932403
     27          6           0        1.621285   -0.305306   -0.629057
     28          6           0        5.126597    0.721803   -1.752906
     29          7           0        6.111550    0.906707   -0.701171
     30          6           0        6.909721   -0.251460   -0.315902
     31          6           0        6.334472   -1.033260    0.877488
     32          7           0        6.043146   -0.183765    2.029271
     33          6           0        7.224518    0.245438    2.756203
     34          6           0        5.166400    0.911963    1.625641
     35          6           0        5.724788    1.722810    0.443850
     36          8           0        0.608470   -3.767770   -0.302539
     37          6           0       -6.030766   -3.521848    0.919914
     38          1           0       -1.030662    5.805682   -1.045268
     39          1           0       -3.370502    4.988169   -0.752222
     40          1           0       -1.724988    1.278536    0.648770
     41          1           0        0.854427    4.266119   -0.518625
     42          1           0       -5.246663    4.278077    0.414470
     43          1           0       -7.377880    2.973392    0.582702
     44          1           0       -6.299667   -1.186931    0.332005
     45          1           0       -3.834635   -5.089799    0.735113
     46          1           0       -1.519764   -4.494302    0.098259
     47          1           0       -2.820735   -0.461426   -0.561459
     48          1           0       -0.737218   -0.996671   -0.943051
     49          1           0        2.798153   -3.351356   -1.521112
     50          1           0        4.786342   -1.972690   -2.086972
     51          1           0        2.703794    1.533969   -0.749621
     52          1           0        0.763607    0.199115   -0.190989
     53          1           0        5.649198    0.281508   -2.611373
     54          1           0        4.797776    1.720973   -2.065902
     55          1           0        7.019982   -0.910624   -1.184571
     56          1           0        7.919006    0.104092   -0.059564
     57          1           0        7.036628   -1.817284    1.185846
     58          1           0        5.399664   -1.524012    0.582466
     59          1           0        7.925709    0.884313    2.190620
     60          1           0        7.777871   -0.638720    3.091106
     61          1           0        6.913322    0.802319    3.646899
     62          1           0        5.002044    1.570009    2.487565
     63          1           0        4.197620    0.478129    1.352491
     64          1           0        6.613885    2.277947    0.778456
     65          1           0        4.992542    2.469088    0.115010
     66          1           0       -6.770851   -3.364573    0.123263
     67          1           0       -6.364518   -2.957213    1.800121
     68          1           0       -6.066329   -4.582435    1.181367
 ---------------------------------------------------------------------

 The electronic state is 1-A.
 Alpha  occ. eigenvalues --  -19.23347 -14.49257 -14.48457 -14.46728 -14.46087
 Alpha  occ. eigenvalues --  -14.45740 -14.43379 -14.42722 -10.41748 -10.40127
 Alpha  occ. eigenvalues --  -10.37599 -10.36338 -10.35289 -10.35028 -10.34637
 Alpha  occ. eigenvalues --  -10.34135 -10.34067 -10.33598 -10.32848 -10.32292
 Alpha  occ. eigenvalues --  -10.31856 -10.31037 -10.30995 -10.30955 -10.30710
 Alpha  occ. eigenvalues --  -10.30699 -10.30369 -10.30280 -10.30256 -10.30234
 Alpha  occ. eigenvalues --  -10.30232 -10.30117 -10.30111 -10.30032 -10.29533
 Alpha  occ. eigenvalues --  -10.28845 -10.28335  -1.13492  -1.12301  -1.06306
 Alpha  occ. eigenvalues --   -1.04558  -1.03603  -1.03554  -1.00718  -0.99258
 Alpha  occ. eigenvalues --   -0.96019  -0.94682  -0.93091  -0.89763  -0.88060
 Alpha  occ. eigenvalues --   -0.87362  -0.86238  -0.85108  -0.84471  -0.83761
 Alpha  occ. eigenvalues --   -0.81666  -0.79492  -0.78258  -0.77659  -0.76307
 Alpha  occ. eigenvalues --   -0.73858  -0.72955  -0.72947  -0.72599  -0.70813
 Alpha  occ. eigenvalues --   -0.70267  -0.69519  -0.67961  -0.66410  -0.65194
 Alpha  occ. eigenvalues --   -0.63616  -0.63256  -0.62260  -0.61800  -0.60198
 Alpha  occ. eigenvalues --   -0.58814  -0.57958  -0.57454  -0.56468  -0.56069
 Alpha  occ. eigenvalues --   -0.55802  -0.55145  -0.54950  -0.54631  -0.54225
 Alpha  occ. eigenvalues --   -0.53567  -0.53187  -0.52973  -0.52335  -0.52179
 Alpha  occ. eigenvalues --   -0.51854  -0.51496  -0.51333  -0.50900  -0.50593
 Alpha  occ. eigenvalues --   -0.50459  -0.50178  -0.49951  -0.49426  -0.48310
 Alpha  occ. eigenvalues --   -0.47275  -0.46728  -0.46452  -0.46285  -0.45988
 Alpha  occ. eigenvalues --   -0.45575  -0.44874  -0.44524  -0.43927  -0.43717
 Alpha  occ. eigenvalues --   -0.43438  -0.43047  -0.42064  -0.41691  -0.41204
 Alpha  occ. eigenvalues --   -0.40647  -0.40591  -0.39935  -0.38201  -0.37598
 Alpha  occ. eigenvalues --   -0.35782  -0.35283  -0.33996  -0.33446  -0.33339
 Alpha  occ. eigenvalues --   -0.32836  -0.31833  -0.30557  -0.29156  -0.27088
 Alpha  occ. eigenvalues --   -0.24671
 Alpha virt. eigenvalues --   -0.00298   0.02899   0.03362   0.04521   0.06516
 Alpha virt. eigenvalues --    0.07281   0.08338   0.10418   0.14541   0.14890
 Alpha virt. eigenvalues --    0.15956   0.16292   0.17361   0.17725   0.18683

 Mulliken atomic charges:
              1
     1  C   -0.197808
     2  C   -0.155250
     3  C    0.035159
     4  C    0.006879
     5  N   -0.435291
     6  C    0.031074
     7  C    0.295675
     8  C   -0.255118
     9  C    0.048868
    10  N   -0.492956
    11  C    0.712320
    12  N   -0.567634
    13  N   -0.800114
    14  C    0.290132
    15  C    0.119868
    16  C   -0.240172
    17  C   -0.189964
    18  C    0.357191
    19  C   -0.267522
    20  N   -0.767312
    21  C    0.599500
    22  C    0.016441
    23  C   -0.176860
    24  C   -0.223304
    25  C    0.159716
    26  C   -0.228604
    27  C   -0.208139
    28  C   -0.262970
    29  N   -0.380698
    30  C   -0.186279
    31  C   -0.183433
    32  N   -0.383584
    33  C   -0.349531
    34  C   -0.182814
    35  C   -0.184782
    36  O   -0.516496
    37  C   -0.608196
    38  H    0.186486
    39  H    0.186328
    40  H    0.201314
    41  H    0.181245
    42  H    0.180748
    43  H    0.189376
    44  H    0.369159
    45  H    0.160911
    46  H    0.215625
    47  H    0.195945
    48  H    0.359671
    49  H    0.198342
    50  H    0.163886
    51  H    0.166906
    52  H    0.188296
    53  H    0.168950
    54  H    0.166644
    55  H    0.152161
    56  H    0.159075
    57  H    0.153100
    58  H    0.173789
    59  H    0.133788
    60  H    0.167294
    61  H    0.166562
    62  H    0.152231
    63  H    0.173954
    64  H    0.158556
    65  H    0.149558
    66  H    0.177714
    67  H    0.183638
    68  H    0.190757
 Sum of Mulliken atomic charges =   0.00000

 Dipole moment (field-independent basis, Debye):
    X=             -2.5383    Y=              6.1220    Z=             -1.0837  Tot=              6.7153
 Quadrupole moment (field-independent basis, Debye-Ang):
   XX=           -189.8083   YY=           -196.2273   ZZ=           -219.0774
   XY=             -6.1418   XZ=             -5.5385   YZ=             -1.6496

 Normal termination of Gaussian 09 at Tue Mar 10 12:47:29 2020.
