                               Psi4 1.3.2 release

  ==> Input File <==

--------------------------------------------------------------------------
molecule {
0 1
 C    2.914539    5.423974   -3.876937
 C    3.058163    5.036379   -2.538216
 C    3.505002    3.736838   -2.224547
 C    3.783700    2.893658   -3.328934
 N    3.651065    3.249402   -4.613636
 C    3.224555    4.493407   -4.874282
 C    3.685627    3.237071   -0.813646
 C    3.425912    3.979494    0.351981
 C    3.654564    3.317854    1.564348
 N    4.083874    2.063229    1.663199
 C    4.301554    1.436643    0.491806
 N    4.120595    1.965976   -0.716656
 N    4.741197    0.149099    0.595488
 C    4.054072   -1.090123    0.403642
 C    4.807370   -2.287840    0.219512
 C    4.082189   -3.474353    0.026584
 C    2.684580   -3.536526    0.006044
 C    1.960902   -2.354515    0.201422
 C    2.653561   -1.145676    0.393484
 N    0.532594   -2.248999    0.194811
 C   -0.437243   -3.167857   -0.135021
 C   -1.857044   -2.662872   -0.298166
 C   -2.163971   -1.403061   -0.837612
 C   -3.491079   -0.980010   -0.934636
 C   -4.555685   -1.801028   -0.517638
 C   -4.234098   -3.069031    0.003613
 C   -2.909582   -3.501148    0.104260
 C   -6.002208   -1.306278   -0.571679
 N   -6.512190   -0.476909    0.535837
 C   -6.079606    0.935514    0.633964
 C   -4.853497    1.170640    1.553810
 N   -5.006203    0.618056    2.920034
 C   -5.757325    1.433080    3.881725
 C   -5.397844   -0.808197    2.816341
 C   -6.609212   -1.078826    1.886202
 O   -0.196507   -4.355687   -0.277955
 C    6.325877   -2.326850    0.206927
 H    2.572461    6.419916   -4.142095
 H    2.817341    5.762707   -1.765791
 H    4.130375    1.878406   -3.157020
 H    3.127448    4.750308   -5.927888
 H    3.070120    5.002334    0.352006
 H    3.477314    3.826318    2.511580
 H    5.738054    0.137594    0.753888
 H    4.620783   -4.408943   -0.126320
 H    2.166610   -4.473795   -0.158049
 H    2.109678   -0.220999    0.535274
 H    0.183926   -1.323253    0.399630
 H   -1.359539   -0.757040   -1.180155
 H   -3.695814    0.009048   -1.344983
 H   -5.026324   -3.732260    0.349581
 H   -2.669486   -4.481315    0.509063
 H   -6.138946   -0.726864   -1.496558
 H   -6.666642   -2.179577   -0.641507
 H   -5.955149    1.362337   -0.333610
 H   -7.263926    1.722213    1.316102
 H   -4.667562    2.656739    1.661490
 H   -3.903624    0.732370    1.101502
 H   -6.806916    1.528994    3.582234
 H   -5.317325    2.434032    3.954237
 H   -5.715586    0.976534    4.877087
 H   -5.630057   -1.265037    3.977809
 H   -4.240561   -1.532307    2.269476
 H   -7.840196   -0.392102    2.603537
 H   -6.842922   -2.143515    1.817344
 H    6.742022   -2.041957    1.183638
 H    6.739529   -1.638440   -0.543619
 H    6.726468   -3.322387   -0.028545
}
memory 20GB
set_num_threads(6)
psi4_io.set_default_path("/scratch/bdw2292")
set freeze_core True
E, wfn = energy('mp2/6-311++G**',return_wfn=True)
oeprop(wfn,"WIBERG_LOWDIN_INDICES")
clean()
--------------------------------------------------------------------------

    Molecular point group: c1

    Geometry (in Angstrom), charge = 0, multiplicity = 1:

       Center              X                  Y                   Z               Mass
    ------------   -----------------  -----------------  -----------------  -----------------
         C            2.742385873815     5.378104505896    -3.759768450803    12.000000000000
         C            2.886009873815     4.990509505896    -2.421047450803    12.000000000000
         C            3.332848873815     3.690968505896    -2.107378450803    12.000000000000
         C            3.611546873815     2.847788505896    -3.211765450803    12.000000000000
         N            3.478911873815     3.203532505896    -4.496467450803    14.003074004430
         C            3.052401873815     4.447537505896    -4.757113450803    12.000000000000
         C            3.513473873815     3.191201505896    -0.696477450803    12.000000000000
         C            3.253758873815     3.933624505896     0.469149549197    12.000000000000
         C            3.482410873815     3.271984505896     1.681516549197    12.000000000000
         N            3.911720873815     2.017359505896     1.780367549197    14.003074004430
         C            4.129400873815     1.390773505896     0.608974549197    12.000000000000
         N            3.948441873815     1.920106505896    -0.599487450803    14.003074004430
         N            4.569043873815     0.103229505896     0.712656549197    14.003074004430
         C            3.881918873815    -1.135992494104     0.520810549197    12.000000000000
         C            4.635216873815    -2.333709494104     0.336680549197    12.000000000000
         C            3.910035873815    -3.520222494104     0.143752549197    12.000000000000
         C            2.512426873815    -3.582395494104     0.123212549197    12.000000000000
         C            1.788748873815    -2.400384494104     0.318590549197    12.000000000000
         C            2.481407873815    -1.191545494104     0.510652549197    12.000000000000
         N            0.360440873815    -2.294868494104     0.311979549197    14.003074004430
         C           -0.609396126185    -3.213726494104    -0.017852450803    12.000000000000
         C           -2.029197126185    -2.708741494104    -0.180997450803    12.000000000000
         C           -2.336124126185    -1.448930494104    -0.720443450803    12.000000000000
         C           -3.663232126185    -1.025879494104    -0.817467450803    12.000000000000
         C           -4.727838126185    -1.846897494104    -0.400469450803    12.000000000000
         C           -4.406251126185    -3.114900494104     0.120781549197    12.000000000000
         C           -3.081735126185    -3.547017494104     0.221428549197    12.000000000000
         C           -6.174361126185    -1.352147494104    -0.454510450803    12.000000000000
         N           -6.684343126185    -0.522778494104     0.653005549197    14.003074004430
         C           -6.251759126185     0.889644505896     0.751132549197    12.000000000000
         C           -5.025650126185     1.124770505896     1.670978549197    12.000000000000
         N           -5.178356126185     0.572186505896     3.037202549197    14.003074004430
         C           -5.929478126185     1.387210505896     3.998893549197    12.000000000000
         C           -5.569997126185    -0.854066494104     2.933509549197    12.000000000000
         C           -6.781365126185    -1.124695494104     2.003370549197    12.000000000000
         O           -0.368660126185    -4.401556494104    -0.160786450803    15.994914619570
         C            6.153723873815    -2.372719494104     0.324095549197    12.000000000000
         H            2.400307873815     6.374046505896    -4.024926450803     1.007825032230
         H            2.645187873815     5.716837505896    -1.648622450803     1.007825032230
         H            3.958221873815     1.832536505896    -3.039851450803     1.007825032230
         H            2.955294873815     4.704438505896    -5.810719450803     1.007825032230
         H            2.897966873815     4.956464505896     0.469174549197     1.007825032230
         H            3.305160873815     3.780448505896     2.628748549197     1.007825032230
         H            5.565900873815     0.091724505896     0.871056549197     1.007825032230
         H            4.448629873815    -4.454812494104    -0.009151450803     1.007825032230
         H            1.994456873815    -4.519664494104    -0.040880450803     1.007825032230
         H            1.937524873815    -0.266868494104     0.652442549197     1.007825032230
         H            0.011772873815    -1.369122494104     0.516798549197     1.007825032230
         H           -1.531692126185    -0.802909494104    -1.062986450803     1.007825032230
         H           -3.867967126185    -0.036821494104    -1.227814450803     1.007825032230
         H           -5.198477126185    -3.778129494104     0.466749549197     1.007825032230
         H           -2.841639126185    -4.527184494104     0.626231549197     1.007825032230
         H           -6.311099126185    -0.772733494104    -1.379389450803     1.007825032230
         H           -6.838795126185    -2.225446494104    -0.524338450803     1.007825032230
         H           -6.127302126185     1.316467505896    -0.216441450803     1.007825032230
         H           -7.436079126185     1.676343505896     1.433270549197     1.007825032230
         H           -4.839715126185     2.610869505896     1.778658549197     1.007825032230
         H           -4.075777126185     0.686500505896     1.218670549197     1.007825032230
         H           -6.979069126185     1.483124505896     3.699402549197     1.007825032230
         H           -5.489478126185     2.388162505896     4.071405549197     1.007825032230
         H           -5.887739126185     0.930664505896     4.994255549197     1.007825032230
         H           -5.802210126185    -1.310906494104     4.094977549197     1.007825032230
         H           -4.412714126185    -1.578176494104     2.386644549197     1.007825032230
         H           -8.012349126185    -0.437971494104     2.720705549197     1.007825032230
         H           -7.015075126185    -2.189384494104     1.934512549197     1.007825032230
         H            6.569868873815    -2.087826494104     1.300806549197     1.007825032230
         H            6.567375873815    -1.684309494104    -0.426450450803     1.007825032230
         H            6.554314873815    -3.368256494104     0.088623549197     1.007825032230

  Charge       = 0
  Multiplicity = 1
  Basis Set: 6-311++G**
    Blend: 6-311++G**
  Basis Set: (6-311++G** AUX)
    Blend: AUG-CC-PVTZ-JKFIT

    Orbital Energies [Eh]
    ---------------------

    Doubly Occupied:

       1A    -20.525417     2A    -15.605259     3A    -15.580501
       4A    -15.579509     5A    -15.578103     6A    -15.577956
       7A    -15.573298     8A    -15.559979     9A    -11.368394
      10A    -11.363485    11A    -11.332786    12A    -11.317559
      13A    -11.313569    14A    -11.312115    15A    -11.309128
      16A    -11.307832    17A    -11.300244    18A    -11.294634
      19A    -11.294501    20A    -11.292140    21A    -11.286670
      22A    -11.284873    23A    -11.275025    24A    -11.265805
      25A    -11.265784    26A    -11.264804    27A    -11.264486
      28A    -11.260040    29A    -11.257780    30A    -11.256715
      31A    -11.254143    32A    -11.246682    33A    -11.239606
      34A    -11.237481    35A    -11.232795    36A    -11.231289
      37A    -11.219022    38A     -1.391120    39A     -1.347590
      40A     -1.270697    41A     -1.252689    42A     -1.252127
      43A     -1.239666    44A     -1.213390    45A     -1.205633
      46A     -1.170548    47A     -1.138158    48A     -1.111353
      49A     -1.074288    50A     -1.065305    51A     -1.045138
      52A     -1.037532    53A     -1.033202    54A     -1.004899
      55A     -1.004730    56A     -0.983413    57A     -0.946372
      58A     -0.931150    59A     -0.923937    60A     -0.901519
      61A     -0.870907    62A     -0.867033    63A     -0.853538
      64A     -0.851259    65A     -0.841098    66A     -0.839534
      67A     -0.824377    68A     -0.811367    69A     -0.779638
      70A     -0.752567    71A     -0.740134    72A     -0.731638
      73A     -0.719662    74A     -0.716430    75A     -0.714535
      76A     -0.686528    77A     -0.681691    78A     -0.667612
      79A     -0.667254    80A     -0.657755    81A     -0.655951
      82A     -0.649628    83A     -0.639054    84A     -0.637571
      85A     -0.626880    86A     -0.617386    87A     -0.615397
      88A     -0.608799    89A     -0.606695    90A     -0.603964
      91A     -0.601426    92A     -0.591474    93A     -0.589463
      94A     -0.588754    95A     -0.587666    96A     -0.583727
      97A     -0.579143    98A     -0.576621    99A     -0.568296
     100A     -0.549070   101A     -0.548870   102A     -0.544667
     103A     -0.540249   104A     -0.537181   105A     -0.530841
     106A     -0.522802   107A     -0.513314   108A     -0.508815
     109A     -0.506824   110A     -0.504652   111A     -0.503849
     112A     -0.499234   113A     -0.490987   114A     -0.465474
     115A     -0.453206   116A     -0.449997   117A     -0.436387
     118A     -0.432733   119A     -0.425707   120A     -0.416425
     121A     -0.414981   122A     -0.402476   123A     -0.399672
     124A     -0.385864   125A     -0.381811   126A     -0.354726
     127A     -0.350614   128A     -0.341036   129A     -0.317794
     130A     -0.315931   131A     -0.288115

  @DF-RHF Final Energy: -1572.30029152959196

   => Energetics <=

    Nuclear Repulsion Energy =           3610.4226698687298267
    One-Electron Energy =               -9318.6246918678843940
    Two-Electron Energy =                4135.9017304695626081
    Total Energy =                      -1572.3002915295919593

  Dipole Moment: [D]
     X:    -0.5331      Y:     6.4899      Z:     0.4372     Total:     6.5265

  Basis Set: (6-311++G** AUX)
    Blend: AUG-CC-PVTZ-RI
	 Reference Energy          =   -1572.3002915295919593 [Eh]
	 Singles Energy            =      -0.0000000000000000 [Eh]
	 Same-Spin Energy          =      -1.4690409677991734 [Eh]
	 Opposite-Spin Energy      =      -4.0458011132196230 [Eh]
	 Correlation Energy        =      -5.5148420810187968 [Eh]
	 Total Energy              =   -1577.8151336106107010 [Eh]

	 ================> DF-SCS-MP2 Energies <==================
	-----------------------------------------------------------
	 SCS Same-Spin Scale       =       0.3333333333333333 [-]
	 SCS Opposite-Spin Scale   =       1.2000000000000000 [-]
	 SCS Same-Spin Energy      =      -0.4896803225997244 [Eh]
	 SCS Opposite-Spin Energy  =      -4.8549613358635471 [Eh]
	 SCS Correlation Energy    =      -5.3446416584632717 [Eh]
	 SCS Total Energy          =   -1577.6449331880551199 [Eh]
	-----------------------------------------------------------

*** Psi4 exiting successfully. Buy a developer a beer!
