                               Psi4 1.3.2 release

  ==> Input File <==

--------------------------------------------------------------------------
molecule {
0 1
 C   -1.840290    5.059846   -0.044800
 C   -3.149483    4.562183   -0.104226
 C   -3.379109    3.174065   -0.026215
 C   -2.223971    2.370041    0.138623
 N   -0.966159    2.824191    0.204420
 C   -0.787247    4.150327    0.106671
 C   -4.750394    2.547433   -0.097258
 C   -5.967652    3.243693   -0.160732
 C   -7.119057    2.448874   -0.195536
 N   -7.117275    1.118587   -0.188725
 C   -5.902062    0.532669   -0.149158
 N   -4.746018    1.200560   -0.102463
 N   -5.903794   -0.854857   -0.161782
 C   -4.861416   -1.843550   -0.022338
 C   -5.204588   -3.184249    0.328612
 C   -4.148276   -4.099971    0.473340
 C   -2.799284   -3.771451    0.294136
 C   -2.480294   -2.459759   -0.071778
 C   -3.514002   -1.522512   -0.227338
 N   -1.162220   -1.944665   -0.294419
 C    0.077704   -2.493178   -0.063997
 C    1.297730   -1.600964   -0.208115
 C    1.276811   -0.208628   -0.015413
 C    2.441955    0.546365   -0.166793
 C    3.676475   -0.055354   -0.478291
 C    3.684524   -1.451638   -0.662071
 C    2.523854   -2.215176   -0.515092
 C    4.933307    0.802402   -0.655325
 N    6.258310    0.181526   -0.471903
 C    7.400063    0.975595   -0.977388
 C    8.788932    0.311843   -0.809806
 N    9.095018   -0.104724    0.578119
 C    9.627680    0.935364    1.468215
 C    7.959428   -0.898751    1.102265
 C    6.577566   -0.224083    0.918000
 O    0.216426   -3.669873    0.234865
 C   -6.631013   -3.645621    0.572447
 H   -1.639918    6.124959   -0.114665
 H   -3.964401    5.270864   -0.229403
 H   -2.326448    1.296257    0.249008
 H    0.243778    4.496088    0.160211
 H   -6.050879    4.323510   -0.157579
 H   -8.104393    2.913043   -0.229098
 H   -6.855265   -1.190952   -0.156092
 H   -4.371256   -5.128849    0.753792
 H   -2.013662   -4.504893    0.428125
 H   -3.277424   -0.510256   -0.512162
 H   -1.143489   -0.992214   -0.629994
 H    0.348102    0.291167    0.251109
 H    2.380171    1.625483   -0.025016
 H    4.609148   -1.963105   -0.927032
 H    2.545874   -3.294050   -0.648913
 H    4.867422    1.196090   -1.680584
 H    4.892479    1.652472    0.042879
 H    7.211654    1.204373   -2.483172
 H    7.431531    2.321051   -0.267091
 H    9.560026    0.885399   -1.186490
 H    8.710572   -1.018889   -1.674814
 H    8.881405    1.717812    1.648337
 H   10.519357    1.392733    1.023937
 H    9.918325    0.496630    2.429697
 H    8.145374   -1.176674    2.089331
 H    7.890150   -2.220753    0.235569
 H    6.538048    1.013470    1.827440
 H    5.559855   -1.197088    1.389337
 H   -7.239123   -3.565604   -0.339575
 H   -7.120950   -3.043406    1.350606
 H   -6.693335   -4.692073    0.901569
}
memory 20GB
set_num_threads(6)
psi4_io.set_default_path("/scratch/bdw2292")
set freeze_core True
E, wfn = energy('mp2/6-311++G**',return_wfn=True)
oeprop(wfn,"WIBERG_LOWDIN_INDICES")
clean()
--------------------------------------------------------------------------

    Molecular point group: c1

    Geometry (in Angstrom), charge = 0, multiplicity = 1:

       Center              X                  Y                   Z               Mass
    ------------   -----------------  -----------------  -----------------  -----------------
         C           -1.710119463133     5.054213478205    -0.041141140153    12.000000000000
         C           -3.019312463133     4.556550478205    -0.100567140153    12.000000000000
         C           -3.248938463133     3.168432478205    -0.022556140153    12.000000000000
         C           -2.093800463133     2.364408478205     0.142281859847    12.000000000000
         N           -0.835988463133     2.818558478205     0.208078859847    14.003074004430
         C           -0.657076463133     4.144694478205     0.110329859847    12.000000000000
         C           -4.620223463133     2.541800478205    -0.093599140153    12.000000000000
         C           -5.837481463133     3.238060478205    -0.157073140153    12.000000000000
         C           -6.988886463133     2.443241478205    -0.191877140153    12.000000000000
         N           -6.987104463133     1.112954478205    -0.185066140153    14.003074004430
         C           -5.771891463133     0.527036478205    -0.145499140153    12.000000000000
         N           -4.615847463133     1.194927478205    -0.098804140153    14.003074004430
         N           -5.773623463133    -0.860489521795    -0.158123140153    14.003074004430
         C           -4.731245463133    -1.849182521795    -0.018679140153    12.000000000000
         C           -5.074417463133    -3.189881521795     0.332270859847    12.000000000000
         C           -4.018105463133    -4.105603521795     0.476998859847    12.000000000000
         C           -2.669113463133    -3.777083521795     0.297794859847    12.000000000000
         C           -2.350123463133    -2.465391521795    -0.068119140153    12.000000000000
         C           -3.383831463133    -1.528144521795    -0.223679140153    12.000000000000
         N           -1.032049463133    -1.950297521795    -0.290760140153    14.003074004430
         C            0.207874536867    -2.498810521795    -0.060338140153    12.000000000000
         C            1.427900536867    -1.606596521795    -0.204456140153    12.000000000000
         C            1.406981536867    -0.214260521795    -0.011754140153    12.000000000000
         C            2.572125536867     0.540732478205    -0.163134140153    12.000000000000
         C            3.806645536867    -0.060986521795    -0.474632140153    12.000000000000
         C            3.814694536867    -1.457270521795    -0.658412140153    12.000000000000
         C            2.654024536867    -2.220808521795    -0.511433140153    12.000000000000
         C            5.063477536867     0.796769478205    -0.651666140153    12.000000000000
         N            6.388480536867     0.175893478205    -0.468244140153    14.003074004430
         C            7.530233536867     0.969962478205    -0.973729140153    12.000000000000
         C            8.919102536867     0.306210478205    -0.806147140153    12.000000000000
         N            9.225188536867    -0.110356521795     0.581777859847    14.003074004430
         C            9.757850536867     0.929731478205     1.471873859847    12.000000000000
         C            8.089598536867    -0.904383521795     1.105923859847    12.000000000000
         C            6.707736536867    -0.229715521795     0.921658859847    12.000000000000
         O            0.346596536867    -3.675505521795     0.238523859847    15.994914619570
         C           -6.500842463133    -3.651253521795     0.576105859847    12.000000000000
         H           -1.509747463133     6.119326478205    -0.111006140153     1.007825032230
         H           -3.834230463133     5.265231478205    -0.225744140153     1.007825032230
         H           -2.196277463133     1.290624478205     0.252666859847     1.007825032230
         H            0.373948536867     4.490455478205     0.163869859847     1.007825032230
         H           -5.920708463133     4.317877478205    -0.153920140153     1.007825032230
         H           -7.974222463133     2.907410478205    -0.225439140153     1.007825032230
         H           -6.725094463133    -1.196584521795    -0.152433140153     1.007825032230
         H           -4.241085463133    -5.134481521795     0.757450859847     1.007825032230
         H           -1.883491463133    -4.510525521795     0.431783859847     1.007825032230
         H           -3.147253463133    -0.515888521795    -0.508503140153     1.007825032230
         H           -1.013318463133    -0.997846521795    -0.626335140153     1.007825032230
         H            0.478272536867     0.285534478205     0.254767859847     1.007825032230
         H            2.510341536867     1.619850478205    -0.021357140153     1.007825032230
         H            4.739318536867    -1.968737521795    -0.923373140153     1.007825032230
         H            2.676044536867    -3.299682521795    -0.645254140153     1.007825032230
         H            4.997592536867     1.190457478205    -1.676925140153     1.007825032230
         H            5.022649536867     1.646839478205     0.046537859847     1.007825032230
         H            7.341824536867     1.198740478205    -2.479513140153     1.007825032230
         H            7.561701536867     2.315418478205    -0.263432140153     1.007825032230
         H            9.690196536867     0.879766478205    -1.182831140153     1.007825032230
         H            8.840742536867    -1.024521521795    -1.671155140153     1.007825032230
         H            9.011575536867     1.712179478205     1.651995859847     1.007825032230
         H           10.649527536867     1.387100478205     1.027595859847     1.007825032230
         H           10.048495536867     0.490997478205     2.433355859847     1.007825032230
         H            8.275544536867    -1.182306521795     2.092989859847     1.007825032230
         H            8.020320536867    -2.226385521795     0.239227859847     1.007825032230
         H            6.668218536867     1.007837478205     1.831098859847     1.007825032230
         H            5.690025536867    -1.202720521795     1.392995859847     1.007825032230
         H           -7.108952463133    -3.571236521795    -0.335916140153     1.007825032230
         H           -6.990779463133    -3.049038521795     1.354264859847     1.007825032230
         H           -6.563164463133    -4.697705521795     0.905227859847     1.007825032230

  Charge       = 0
  Multiplicity = 1
  Basis Set: 6-311++G**
    Blend: 6-311++G**
  Basis Set: (6-311++G** AUX)
    Blend: AUG-CC-PVTZ-JKFIT

    Orbital Energies [Eh]
    ---------------------

    Doubly Occupied:

       1A    -20.516563     2A    -15.603100     3A    -15.599094
       4A    -15.594641     5A    -15.587234     6A    -15.574055
       7A    -15.571064     8A    -15.568648     9A    -11.375063
      10A    -11.360682    11A    -11.352839    12A    -11.344328
      13A    -11.334211    14A    -11.313981    15A    -11.310249
      16A    -11.309094    17A    -11.301328    18A    -11.300497
      19A    -11.300080    20A    -11.291342    21A    -11.289399
      22A    -11.280353    23A    -11.278081    24A    -11.265637
      25A    -11.261638    26A    -11.261153    27A    -11.252268
      28A    -11.251454    29A    -11.250110    30A    -11.245846
      31A    -11.243958    32A    -11.242310    33A    -11.238412
      34A    -11.237312    35A    -11.234384    36A    -11.229611
      37A    -11.223159    38A     -1.382809    39A     -1.343990
      40A     -1.278661    41A     -1.258863    42A     -1.248609
      43A     -1.239616    44A     -1.216298    45A     -1.209388
      46A     -1.157958    47A     -1.138218    48A     -1.115611
      49A     -1.074994    50A     -1.058163    51A     -1.048332
      52A     -1.036984    53A     -1.017532    54A     -1.006636
      55A     -1.004209    56A     -0.984889    57A     -0.947490
      58A     -0.930244    59A     -0.926281    60A     -0.900312
      61A     -0.872412    62A     -0.865644    63A     -0.857676
      64A     -0.844747    65A     -0.837643    66A     -0.829235
      67A     -0.824555    68A     -0.804592    69A     -0.775716
      70A     -0.753167    71A     -0.738057    72A     -0.728907
      73A     -0.721704    74A     -0.718048    75A     -0.697106
      76A     -0.682375    77A     -0.669951    78A     -0.662671
      79A     -0.658174    80A     -0.652311    81A     -0.650564
      82A     -0.645635    83A     -0.640380    84A     -0.631665
      85A     -0.625691    86A     -0.619988    87A     -0.614795
      88A     -0.610988    89A     -0.605679    90A     -0.602930
      91A     -0.599222    92A     -0.595152    93A     -0.591613
      94A     -0.587622    95A     -0.586482    96A     -0.580021
      97A     -0.578805    98A     -0.569763    99A     -0.561384
     100A     -0.557291   101A     -0.546628   102A     -0.544253
     103A     -0.543645   104A     -0.538600   105A     -0.522817
     106A     -0.521896   107A     -0.513062   108A     -0.508025
     109A     -0.504506   110A     -0.501968   111A     -0.494551
     112A     -0.491786   113A     -0.483911   114A     -0.476964
     115A     -0.451722   116A     -0.442924   117A     -0.440048
     118A     -0.436558   119A     -0.424808   120A     -0.423359
     121A     -0.414318   122A     -0.400143   123A     -0.382436
     124A     -0.373128   125A     -0.366038   126A     -0.345912
     127A     -0.342402   128A     -0.338194   129A     -0.332999
     130A     -0.312946   131A     -0.288941

  @DF-RHF Final Energy: -1572.21398844616238

   => Energetics <=

    Nuclear Repulsion Energy =           3587.8567917742175268
    One-Electron Energy =               -9273.5833443932806404
    Two-Electron Energy =                4113.5125641729009658
    Total Energy =                      -1572.2139884461621477

  Dipole Moment: [D]
     X:    -1.9912      Y:     8.0749      Z:    -0.0095     Total:     8.3168

  Basis Set: (6-311++G** AUX)
    Blend: AUG-CC-PVTZ-RI
	 Reference Energy          =   -1572.2139884461623751 [Eh]
	 Singles Energy            =      -0.0000000000000000 [Eh]
	 Same-Spin Energy          =      -1.4711168662052856 [Eh]
	 Opposite-Spin Energy      =      -4.0557936340329146 [Eh]
	 Correlation Energy        =      -5.5269105002382002 [Eh]
	 Total Energy              =   -1577.7408989464006481 [Eh]

	 ================> DF-SCS-MP2 Energies <==================
	-----------------------------------------------------------
	 SCS Same-Spin Scale       =       0.3333333333333333 [-]
	 SCS Opposite-Spin Scale   =       1.2000000000000000 [-]
	 SCS Same-Spin Energy      =      -0.4903722887350952 [Eh]
	 SCS Opposite-Spin Energy  =      -4.8669523608394973 [Eh]
	 SCS Correlation Energy    =      -5.3573246495745925 [Eh]
	 SCS Total Energy          =   -1577.5713130957369685 [Eh]
	-----------------------------------------------------------

*** Psi4 exiting successfully. Buy a developer a beer!
