                               Psi4 1.3.2 release

  ==> Input File <==

--------------------------------------------------------------------------
molecule {
0 1
 C    0.126950    4.476074   -0.710558
 C    1.493148    4.407089   -0.403137
 C    2.137286    3.155677   -0.340007
 C    1.324351    2.031760   -0.630734
 N    0.020676    2.075378   -0.932229
 C   -0.561736    3.283657   -0.962704
 C    3.598912    2.981574   -0.007270
 C    4.529844    4.014291    0.185339
 C    5.842093    3.604406    0.450173
 N    6.232765    2.335592    0.542033
 C    5.265726    1.410161    0.369756
 N    3.989382    1.698125    0.103088
 N    5.663040    0.086006    0.488011
 C    4.979696   -1.164670    0.257787
 C    5.735420   -2.349599    0.007524
 C    5.013365   -3.531058   -0.235082
 C    3.615234   -3.606151   -0.241646
 C    2.889342   -2.442645    0.032369
 C    3.582007   -1.246881    0.279315
 N    1.463058   -2.327174    0.068324
 C    0.467474   -3.216356   -0.262130
 C   -0.959390   -2.699488   -0.303817
 C   -1.295873   -1.366130   -0.595254
 C   -2.629077   -0.952191   -0.584788
 C   -3.677017   -1.849693   -0.304735
 C   -3.329069   -3.191683   -0.055153
 C   -1.997199   -3.613859   -0.056765
 C   -5.136959   -1.389536   -0.308571
 N   -5.404173   -0.072791    0.304026
 C   -6.056487   -0.043397    1.627480
 C   -7.603308    0.017016    1.553947
 N   -8.125939    1.119438    0.707344
 C   -8.243754    2.432398    1.355843
 C   -7.451473    1.102276   -0.615496
 C   -5.905392    1.033687   -0.535264
 O    0.700732   -4.392251   -0.498716
 C    7.253345   -2.379009   -0.036343
 H   -0.392441    5.428835   -0.753469
 H    2.023664    5.333836   -0.198669
 H    1.762424    1.039536   -0.646842
 H   -1.622756    3.292953   -1.207411
 H    4.291012    5.068213    0.111798
 H    6.628251    4.345072    0.594664
 H    6.659402    0.043428    0.641849
 H    5.556632   -4.451593   -0.445169
 H    3.097051   -4.535395   -0.444733
 H    3.029451   -0.346226    0.493859
 H    1.131772   -1.411093    0.335104
 H   -0.514714   -0.644309   -0.822909
 H   -2.845081    0.093151   -0.802217
 H   -4.106147   -3.928644    0.146947
 H   -1.739802   -4.651379    0.141818
 H   -5.506129   -1.313308   -1.341110
 H   -5.731485   -2.183102    0.164822
 H   -5.662845   -1.199263    2.391327
 H   -5.588760    1.169677    2.358183
 H   -8.051092    0.055299    2.508485
 H   -8.046857   -1.314469    0.878990
 H   -7.256615    2.825767    1.624921
 H   -8.851236    2.351904    2.264582
 H   -8.737185    3.144263    0.683881
 H   -7.789036    1.905971   -1.197641
 H   -7.895793   -0.218346   -1.328949
 H   -5.424564    2.328939    0.053131
 H   -5.364252    0.921993   -1.879407
 H    7.687703   -2.136536    0.943876
 H    7.648884   -1.654552   -0.762054
 H    7.654259   -3.360501   -0.324803
}
memory 20GB
set_num_threads(6)
psi4_io.set_default_path("/scratch/bdw2292")
set freeze_core True
E, wfn = energy('mp2/6-311++G**',return_wfn=True)
oeprop(wfn,"WIBERG_LOWDIN_INDICES")
clean()
--------------------------------------------------------------------------

    Molecular point group: c1

    Geometry (in Angstrom), charge = 0, multiplicity = 1:

       Center              X                  Y                   Z               Mass
    ------------   -----------------  -----------------  -----------------  -----------------
         C            0.011893736080     4.493295832792    -0.713258219693    12.000000000000
         C            1.378091736080     4.424310832792    -0.405837219693    12.000000000000
         C            2.022229736080     3.172898832792    -0.342707219693    12.000000000000
         C            1.209294736080     2.048981832792    -0.633434219693    12.000000000000
         N           -0.094380263920     2.092599832792    -0.934929219693    14.003074004430
         C           -0.676792263920     3.300878832792    -0.965404219693    12.000000000000
         C            3.483855736080     2.998795832792    -0.009970219693    12.000000000000
         C            4.414787736080     4.031512832792     0.182638780307    12.000000000000
         C            5.727036736080     3.621627832792     0.447472780307    12.000000000000
         N            6.117708736080     2.352813832792     0.539332780307    14.003074004430
         C            5.150669736080     1.427382832792     0.367055780307    12.000000000000
         N            3.874325736080     1.715346832792     0.100387780307    14.003074004430
         N            5.547983736080     0.103227832792     0.485310780307    14.003074004430
         C            4.864639736080    -1.147448167208     0.255086780307    12.000000000000
         C            5.620363736080    -2.332377167208     0.004823780307    12.000000000000
         C            4.898308736080    -3.513836167208    -0.237782219693    12.000000000000
         C            3.500177736080    -3.588929167208    -0.244346219693    12.000000000000
         C            2.774285736080    -2.425423167208     0.029668780307    12.000000000000
         C            3.466950736080    -1.229659167208     0.276614780307    12.000000000000
         N            1.348001736080    -2.309952167208     0.065623780307    14.003074004430
         C            0.352417736080    -3.199134167208    -0.264830219693    12.000000000000
         C           -1.074446263920    -2.682266167208    -0.306517219693    12.000000000000
         C           -1.410929263920    -1.348908167208    -0.597954219693    12.000000000000
         C           -2.744133263920    -0.934969167208    -0.587488219693    12.000000000000
         C           -3.792073263920    -1.832471167208    -0.307435219693    12.000000000000
         C           -3.444125263920    -3.174461167208    -0.057853219693    12.000000000000
         C           -2.112255263920    -3.596637167208    -0.059465219693    12.000000000000
         C           -5.252015263920    -1.372314167208    -0.311271219693    12.000000000000
         N           -5.519229263920    -0.055569167208     0.301325780307    14.003074004430
         C           -6.171543263920    -0.026175167208     1.624779780307    12.000000000000
         C           -7.718364263920     0.034237832792     1.551246780307    12.000000000000
         N           -8.240995263920     1.136659832792     0.704643780307    14.003074004430
         C           -8.358810263920     2.449619832792     1.353142780307    12.000000000000
         C           -7.566529263920     1.119497832792    -0.618196219693    12.000000000000
         C           -6.020448263920     1.050908832792    -0.537964219693    12.000000000000
         O            0.585675736080    -4.375029167208    -0.501416219693    15.994914619570
         C            7.138288736080    -2.361787167208    -0.039043219693    12.000000000000
         H           -0.507497263920     5.446056832792    -0.756169219693     1.007825032230
         H            1.908607736080     5.351057832792    -0.201369219693     1.007825032230
         H            1.647367736080     1.056757832792    -0.649542219693     1.007825032230
         H           -1.737812263920     3.310174832792    -1.210111219693     1.007825032230
         H            4.175955736080     5.085434832792     0.109097780307     1.007825032230
         H            6.513194736080     4.362293832792     0.591963780307     1.007825032230
         H            6.544345736080     0.060649832792     0.639148780307     1.007825032230
         H            5.441575736080    -4.434371167208    -0.447869219693     1.007825032230
         H            2.981994736080    -4.518173167208    -0.447433219693     1.007825032230
         H            2.914394736080    -0.329004167208     0.491158780307     1.007825032230
         H            1.016715736080    -1.393871167208     0.332403780307     1.007825032230
         H           -0.629770263920    -0.627087167208    -0.825609219693     1.007825032230
         H           -2.960137263920     0.110372832792    -0.804917219693     1.007825032230
         H           -4.221203263920    -3.911422167208     0.144246780307     1.007825032230
         H           -1.854858263920    -4.634157167208     0.139117780307     1.007825032230
         H           -5.621185263920    -1.296086167208    -1.343810219693     1.007825032230
         H           -5.846541263920    -2.165880167208     0.162121780307     1.007825032230
         H           -5.777901263920    -1.182041167208     2.388626780307     1.007825032230
         H           -5.703816263920     1.186898832792     2.355482780307     1.007825032230
         H           -8.166148263920     0.072520832792     2.505784780307     1.007825032230
         H           -8.161913263920    -1.297247167208     0.876289780307     1.007825032230
         H           -7.371671263920     2.842988832792     1.622220780307     1.007825032230
         H           -8.966292263920     2.369125832792     2.261881780307     1.007825032230
         H           -8.852241263920     3.161484832792     0.681180780307     1.007825032230
         H           -7.904092263920     1.923192832792    -1.200341219693     1.007825032230
         H           -8.010849263920    -0.201124167208    -1.331649219693     1.007825032230
         H           -5.539620263920     2.346160832792     0.050430780307     1.007825032230
         H           -5.479308263920     0.939214832792    -1.882107219693     1.007825032230
         H            7.572646736080    -2.119314167208     0.941175780307     1.007825032230
         H            7.533827736080    -1.637330167208    -0.764754219693     1.007825032230
         H            7.539202736080    -3.343279167208    -0.327503219693     1.007825032230

  Charge       = 0
  Multiplicity = 1
  Basis Set: 6-311++G**
    Blend: 6-311++G**
  Basis Set: (6-311++G** AUX)
    Blend: AUG-CC-PVTZ-JKFIT

    Orbital Energies [Eh]
    ---------------------

    Doubly Occupied:

       1A    -20.515393     2A    -15.601938     3A    -15.597563
       4A    -15.584801     5A    -15.574310     6A    -15.573435
       7A    -15.573031     8A    -15.566714     9A    -11.373659
      10A    -11.359082    11A    -11.347182    12A    -11.341302
      13A    -11.332658    14A    -11.313034    15A    -11.310043
      16A    -11.308749    17A    -11.299115    18A    -11.298837
      19A    -11.298307    20A    -11.290221    21A    -11.287612
      22A    -11.278356    23A    -11.276873    24A    -11.264134
      25A    -11.263726    26A    -11.253273    27A    -11.251153
      28A    -11.249005    29A    -11.245021    30A    -11.244991
      31A    -11.242699    32A    -11.239253    33A    -11.237645
      34A    -11.235341    35A    -11.233589    36A    -11.228597
      37A    -11.222551    38A     -1.381231    39A     -1.342916
      40A     -1.276496    41A     -1.255459    42A     -1.247703
      43A     -1.238570    44A     -1.210288    45A     -1.208231
      46A     -1.154686    47A     -1.137043    48A     -1.113777
      49A     -1.073369    50A     -1.055547    51A     -1.046456
      52A     -1.035245    53A     -1.014817    54A     -1.006620
      55A     -1.005658    56A     -0.979773    57A     -0.947772
      58A     -0.930751    59A     -0.924765    60A     -0.898863
      61A     -0.870627    62A     -0.862521    63A     -0.856073
      64A     -0.842135    65A     -0.840770    66A     -0.830205
      67A     -0.824934    68A     -0.803881    69A     -0.774492
      70A     -0.751576    71A     -0.736364    72A     -0.727574
      73A     -0.719426    74A     -0.713553    75A     -0.694130
      76A     -0.680911    77A     -0.670539    78A     -0.665021
      79A     -0.656732    80A     -0.651922    81A     -0.649561
      82A     -0.645027    83A     -0.635115    84A     -0.629032
      85A     -0.624051    86A     -0.618647    87A     -0.612858
      88A     -0.609619    89A     -0.604665    90A     -0.600453
      91A     -0.596659    92A     -0.594900    93A     -0.592444
      94A     -0.588781    95A     -0.584961    96A     -0.580183
      97A     -0.578189    98A     -0.571141    99A     -0.561940
     100A     -0.559360   101A     -0.545902   102A     -0.545726
     103A     -0.542288   104A     -0.540219   105A     -0.529001
     106A     -0.520759   107A     -0.511547   108A     -0.506754
     109A     -0.505795   110A     -0.497841   111A     -0.493386
     112A     -0.486833   113A     -0.482616   114A     -0.474843
     115A     -0.453309   116A     -0.450343   117A     -0.440633
     118A     -0.430253   119A     -0.423372   120A     -0.421901
     121A     -0.412773   122A     -0.398280   123A     -0.392590
     124A     -0.390731   125A     -0.371461   126A     -0.344293
     127A     -0.338130   128A     -0.331222   129A     -0.324666
     130A     -0.311810   131A     -0.288308

  @DF-RHF Final Energy: -1572.24869672374621

   => Energetics <=

    Nuclear Repulsion Energy =           3644.6248937970690349
    One-Electron Energy =               -9387.5116175960447436
    Two-Electron Energy =                4170.6380270752297292
    Total Energy =                      -1572.2486967237464341

  Dipole Moment: [D]
     X:    -0.7480      Y:     8.0126      Z:     1.0354     Total:     8.1137

  Basis Set: (6-311++G** AUX)
    Blend: AUG-CC-PVTZ-RI
	 Reference Energy          =   -1572.2486967237462068 [Eh]
	 Singles Energy            =      -0.0000000000000000 [Eh]
	 Same-Spin Energy          =      -1.4690794229692177 [Eh]
	 Opposite-Spin Energy      =      -4.0507182007345257 [Eh]
	 Correlation Energy        =      -5.5197976237037434 [Eh]
	 Total Energy              =   -1577.7684943474498596 [Eh]

	 ================> DF-SCS-MP2 Energies <==================
	-----------------------------------------------------------
	 SCS Same-Spin Scale       =       0.3333333333333333 [-]
	 SCS Opposite-Spin Scale   =       1.2000000000000000 [-]
	 SCS Same-Spin Energy      =      -0.4896931409897392 [Eh]
	 SCS Opposite-Spin Energy  =      -4.8608618408814310 [Eh]
	 SCS Correlation Energy    =      -5.3505549818711700 [Eh]
	 SCS Total Energy          =   -1577.5992517056174620 [Eh]
	-----------------------------------------------------------

*** Psi4 exiting successfully. Buy a developer a beer!
