                               Psi4 1.3.2 release

  ==> Input File <==

--------------------------------------------------------------------------
molecule {
0 1
 C    1.663376    4.954343   -3.277416
 C    2.342223    4.701001   -2.078308
 C    2.818463    3.404348   -1.798066
 C    2.564965    2.423209   -2.788858
 N    1.915095    2.649204   -3.938226
 C    1.475940    3.894464   -4.170803
 C    3.551535    3.043960   -0.531110
 C    3.835258    3.927328    0.524873
 C    4.510951    3.375561    1.619510
 N    4.880077    2.101224    1.707687
 C    4.559780    1.332816    0.648602
 N    3.919775    1.751324   -0.443098
 N    4.937524    0.019570    0.741280
 C    4.213611   -1.192694    0.498415
 C    4.932630   -2.412646    0.322850
 C    4.176791   -3.571954    0.087728
 C    2.779868   -3.587257    0.014272
 C    2.089255   -2.383243    0.193534
 C    2.813713   -1.201434    0.429945
 N    0.667123   -2.228598    0.128014
 C   -0.319589   -3.109383   -0.252221
 C   -1.712786   -2.552622   -0.467507
 C   -1.952422   -1.277066   -1.003878
 C   -3.258560   -0.804821   -1.147252
 C   -4.367297   -1.587379   -0.773505
 C   -4.112801   -2.873193   -0.258872
 C   -2.809992   -3.356893   -0.118654
 C   -5.790542   -1.034318   -0.864859
 N   -6.295262   -0.198183    0.240443
 C   -5.806107    1.193290    0.367774
 C   -4.593004    1.362504    1.318620
 N   -4.804667    0.801769    2.673522
 C   -5.537026    1.640386    3.629716
 C   -5.257514   -0.604974    2.546563
 C   -6.453722   -0.810908    1.580149
 O   -0.114470   -4.303594   -0.398755
 C    6.447662   -2.505744    0.375476
 H    1.289991    5.945986   -3.515195
 H    2.485660    5.527309   -1.386314
 H    2.907359    1.403003   -2.637363
 H    0.953161    4.044777   -5.113904
 H    3.560471    4.974888    0.529714
 H    4.767501    3.996026    2.477543
 H    5.925771   -0.041032    0.938158
 H    4.689637   -4.522435   -0.055024
 H    2.237665   -4.504305   -0.182051
 H    2.296684   -0.258493    0.548712
 H    0.343002   -1.293131    0.329513
 H   -1.111961   -0.656899   -1.305983
 H   -3.410395    0.196331   -1.551024
 H   -4.940964   -3.509428    0.052207
 H   -2.621657   -4.349013    0.283674
 H   -5.877422   -0.438760   -1.785233
 H   -6.487839   -1.878667   -0.965832
 H   -5.640278    1.626239   -0.591227
 H   -6.972343    2.022411    1.031433
 H   -4.344328    2.837364    1.450587
 H   -3.669607    0.899388    0.893979
 H   -6.577362    1.780373    3.315200
 H   -5.057966    2.622345    3.715944
 H   -5.528344    1.175831    4.622666
 H   -5.506081   -1.038116    3.623556
 H   -4.115871   -1.374563    2.010790
 H   -7.675484   -0.082656    2.274084
 H   -6.730427   -1.876457    1.489086
 H    6.830891   -2.234537    1.369368
 H    6.917325   -1.833341   -0.356218
 H    6.822465   -3.515465    0.158593
}
memory 20GB
set_num_threads(6)
psi4_io.set_default_path("/scratch/bdw2292")
set freeze_core True
E, wfn = energy('mp2/6-311++G**',return_wfn=True)
oeprop(wfn,"WIBERG_LOWDIN_INDICES")
clean()
--------------------------------------------------------------------------

    Molecular point group: c1

    Geometry (in Angstrom), charge = 0, multiplicity = 1:

       Center              X                  Y                   Z               Mass
    ------------   -----------------  -----------------  -----------------  -----------------
         C            1.520636296880     4.933953935410    -3.189108308308    12.000000000000
         C            2.199483296880     4.680611935410    -1.990000308308    12.000000000000
         C            2.675723296880     3.383958935410    -1.709758308308    12.000000000000
         C            2.422225296880     2.402819935410    -2.700550308308    12.000000000000
         N            1.772355296880     2.628814935410    -3.849918308308    14.003074004430
         C            1.333200296880     3.874074935410    -4.082495308308    12.000000000000
         C            3.408795296880     3.023570935410    -0.442802308308    12.000000000000
         C            3.692518296880     3.906938935410     0.613180691692    12.000000000000
         C            4.368211296880     3.355171935410     1.707817691692    12.000000000000
         N            4.737337296880     2.080834935410     1.795994691692    14.003074004430
         C            4.417040296880     1.312426935410     0.736909691692    12.000000000000
         N            3.777035296880     1.730934935410    -0.354790308308    14.003074004430
         N            4.794784296880    -0.000819064590     0.829587691692    14.003074004430
         C            4.070871296880    -1.213083064590     0.586722691692    12.000000000000
         C            4.789890296880    -2.433035064590     0.411157691692    12.000000000000
         C            4.034051296880    -3.592343064590     0.176035691692    12.000000000000
         C            2.637128296880    -3.607646064590     0.102579691692    12.000000000000
         C            1.946515296880    -2.403632064590     0.281841691692    12.000000000000
         C            2.670973296880    -1.221823064590     0.518252691692    12.000000000000
         N            0.524383296880    -2.248987064590     0.216321691692    14.003074004430
         C           -0.462328703120    -3.129772064590    -0.163913308308    12.000000000000
         C           -1.855525703120    -2.573011064590    -0.379199308308    12.000000000000
         C           -2.095161703120    -1.297455064590    -0.915570308308    12.000000000000
         C           -3.401299703120    -0.825210064590    -1.058944308308    12.000000000000
         C           -4.510036703120    -1.607768064590    -0.685197308308    12.000000000000
         C           -4.255540703120    -2.893582064590    -0.170564308308    12.000000000000
         C           -2.952731703120    -3.377282064590    -0.030346308308    12.000000000000
         C           -5.933281703120    -1.054707064590    -0.776551308308    12.000000000000
         N           -6.438001703120    -0.218572064590     0.328750691692    14.003074004430
         C           -5.948846703120     1.172900935410     0.456081691692    12.000000000000
         C           -4.735743703120     1.342114935410     1.406927691692    12.000000000000
         N           -4.947406703120     0.781379935410     2.761829691692    14.003074004430
         C           -5.679765703120     1.619996935410     3.718023691692    12.000000000000
         C           -5.400253703120    -0.625363064590     2.634870691692    12.000000000000
         C           -6.596461703120    -0.831297064590     1.668456691692    12.000000000000
         O           -0.257209703120    -4.323983064590    -0.310447308308    15.994914619570
         C            6.304922296880    -2.526133064590     0.463783691692    12.000000000000
         H            1.147251296880     5.925596935410    -3.426887308308     1.007825032230
         H            2.342920296880     5.506919935410    -1.298006308308     1.007825032230
         H            2.764619296880     1.382613935410    -2.549055308308     1.007825032230
         H            0.810421296880     4.024387935410    -5.025596308308     1.007825032230
         H            3.417731296880     4.954498935410     0.618021691692     1.007825032230
         H            4.624761296880     3.975636935410     2.565850691692     1.007825032230
         H            5.783031296880    -0.061421064590     1.026465691692     1.007825032230
         H            4.546897296880    -4.542824064590     0.033283691692     1.007825032230
         H            2.094925296880    -4.524694064590    -0.093743308308     1.007825032230
         H            2.153944296880    -0.278882064590     0.637019691692     1.007825032230
         H            0.200262296880    -1.313520064590     0.417820691692     1.007825032230
         H           -1.254700703120    -0.677288064590    -1.217675308308     1.007825032230
         H           -3.553134703120     0.175941935410    -1.462716308308     1.007825032230
         H           -5.083703703120    -3.529817064590     0.140514691692     1.007825032230
         H           -2.764396703120    -4.369402064590     0.371981691692     1.007825032230
         H           -6.020161703120    -0.459149064590    -1.696925308308     1.007825032230
         H           -6.630578703120    -1.899056064590    -0.877524308308     1.007825032230
         H           -5.783017703120     1.605849935410    -0.502919308308     1.007825032230
         H           -7.115082703120     2.002021935410     1.119740691692     1.007825032230
         H           -4.487067703120     2.816974935410     1.538894691692     1.007825032230
         H           -3.812346703120     0.878998935410     0.982286691692     1.007825032230
         H           -6.720101703120     1.759983935410     3.403507691692     1.007825032230
         H           -5.200705703120     2.601955935410     3.804251691692     1.007825032230
         H           -5.671083703120     1.155441935410     4.710973691692     1.007825032230
         H           -5.648820703120    -1.058505064590     3.711863691692     1.007825032230
         H           -4.258610703120    -1.394952064590     2.099097691692     1.007825032230
         H           -7.818223703120    -0.103045064590     2.362391691692     1.007825032230
         H           -6.873166703120    -1.896846064590     1.577393691692     1.007825032230
         H            6.688151296880    -2.254926064590     1.457675691692     1.007825032230
         H            6.774585296880    -1.853730064590    -0.267910308308     1.007825032230
         H            6.679725296880    -3.535854064590     0.246900691692     1.007825032230

  Charge       = 0
  Multiplicity = 1
  Basis Set: 6-311++G**
    Blend: 6-311++G**
  Basis Set: (6-311++G** AUX)
    Blend: AUG-CC-PVTZ-JKFIT

    Orbital Energies [Eh]
    ---------------------

    Doubly Occupied:

       1A    -20.525247     2A    -15.605253     3A    -15.585494
       4A    -15.578612     5A    -15.576837     6A    -15.575915
       7A    -15.574424     8A    -15.558143     9A    -11.368222
      10A    -11.366990    11A    -11.331876    12A    -11.314018
      13A    -11.311919    14A    -11.309561    15A    -11.307872
      16A    -11.304008    17A    -11.300960    18A    -11.295334
      19A    -11.294839    20A    -11.292327    21A    -11.285702
      22A    -11.284688    23A    -11.274788    24A    -11.264688
      25A    -11.264675    26A    -11.263208    27A    -11.260197
      28A    -11.257986    29A    -11.256788    30A    -11.255333
      31A    -11.253042    32A    -11.246240    33A    -11.242624
      34A    -11.238812    35A    -11.234525    36A    -11.233493
      37A    -11.221641    38A     -1.390878    39A     -1.346276
      40A     -1.271113    41A     -1.253069    42A     -1.250988
      43A     -1.241232    44A     -1.211107    45A     -1.204422
      46A     -1.169475    47A     -1.139231    48A     -1.111319
      49A     -1.073444    50A     -1.064569    51A     -1.044835
      52A     -1.038626    53A     -1.032272    54A     -1.006392
      55A     -1.005220    56A     -0.982917    57A     -0.947393
      58A     -0.931340    59A     -0.923455    60A     -0.900377
      61A     -0.870444    62A     -0.867327    63A     -0.853590
      64A     -0.851435    65A     -0.842688    66A     -0.839534
      67A     -0.825022    68A     -0.811253    69A     -0.780527
      70A     -0.753281    71A     -0.739814    72A     -0.731828
      73A     -0.718156    74A     -0.717236    75A     -0.710281
      76A     -0.685467    77A     -0.680748    78A     -0.666864
      79A     -0.665804    80A     -0.656370    81A     -0.655056
      82A     -0.650373    83A     -0.639321    84A     -0.637224
      85A     -0.626062    86A     -0.616976    87A     -0.615221
      88A     -0.609081    89A     -0.606300    90A     -0.602941
      91A     -0.601265    92A     -0.595831    93A     -0.593628
      94A     -0.590695    95A     -0.587414    96A     -0.584262
      97A     -0.580015    98A     -0.578193    99A     -0.569633
     100A     -0.551841   101A     -0.548448   102A     -0.546762
     103A     -0.539511   104A     -0.536203   105A     -0.531208
     106A     -0.523974   107A     -0.513190   108A     -0.511599
     109A     -0.508234   110A     -0.504326   111A     -0.503421
     112A     -0.497892   113A     -0.489966   114A     -0.474031
     115A     -0.456867   116A     -0.449294   117A     -0.435787
     118A     -0.432439   119A     -0.425099   120A     -0.422978
     121A     -0.414387   122A     -0.399321   123A     -0.397458
     124A     -0.384418   125A     -0.377117   126A     -0.353628
     127A     -0.349507   128A     -0.341086   129A     -0.316909
     130A     -0.314807   131A     -0.289014

  @DF-RHF Final Energy: -1572.32051844495800

   => Energetics <=

    Nuclear Repulsion Energy =           3666.4619077741299407
    One-Electron Energy =               -9430.7566430890201445
    Two-Electron Energy =                4191.9742168699322065
    Total Energy =                      -1572.3205184449579974

  Dipole Moment: [D]
     X:     0.1885      Y:     6.1147      Z:     0.4499     Total:     6.1342

  Basis Set: (6-311++G** AUX)
    Blend: AUG-CC-PVTZ-RI
	 Reference Energy          =   -1572.3205184449579974 [Eh]
	 Singles Energy            =      -0.0000000000000000 [Eh]
	 Same-Spin Energy          =      -1.4691652897555216 [Eh]
	 Opposite-Spin Energy      =      -4.0452706234134901 [Eh]
	 Correlation Energy        =      -5.5144359131690113 [Eh]
	 Total Energy              =   -1577.8349543581271064 [Eh]

	 ================> DF-SCS-MP2 Energies <==================
	-----------------------------------------------------------
	 SCS Same-Spin Scale       =       0.3333333333333333 [-]
	 SCS Opposite-Spin Scale   =       1.2000000000000000 [-]
	 SCS Same-Spin Energy      =      -0.4897217632518405 [Eh]
	 SCS Opposite-Spin Energy  =      -4.8543247480961877 [Eh]
	 SCS Correlation Energy    =      -5.3440465113480284 [Eh]
	 SCS Total Energy          =   -1577.6645649563060942 [Eh]
	-----------------------------------------------------------

*** Psi4 exiting successfully. Buy a developer a beer!
