                               Psi4 1.3.2 release

  ==> Input File <==

--------------------------------------------------------------------------
molecule {
0 1
 C    7.123737   -0.381207   -3.640820
 C    6.855972    0.630322   -2.708991
 C    5.939479    0.400884   -1.662873
 C    5.338383   -0.882494   -1.635710
 N    5.583455   -1.858929   -2.519675
 C    6.461433   -1.605176   -3.500435
 C    5.594272    1.433079   -0.619498
 C    6.122174    2.734578   -0.555507
 C    5.657631    3.531168    0.497606
 N    4.774808    3.132323    1.408551
 C    4.330796    1.868353    1.265206
 N    4.701779    1.024907    0.302867
 N    3.428237    1.456476    2.207482
 C    2.720339    0.229151    2.308487
 C    3.301177   -0.847116    3.037606
 C    2.562013   -2.036796    3.111337
 C    1.308616   -2.206951    2.512702
 C    0.754523   -1.136470    1.799202
 C    1.469678    0.071027    1.701687
 N   -0.502496   -1.165373    1.110937
 C   -1.509092   -2.104056    1.120435
 C   -2.736801   -1.847252    0.268278
 C   -2.704548   -1.140611   -0.945143
 C   -3.875886   -0.940531   -1.678859
 C   -5.114253   -1.442324   -1.236193
 C   -5.128880   -2.166705   -0.029037
 C   -3.960463   -2.381868    0.704933
 C   -6.400166   -1.189475   -2.025168
 N   -7.169660    0.039408   -1.760053
 C   -6.625042    1.334753   -2.226644
 C   -5.801644    2.109256   -1.165506
 N   -6.504282    2.313675    0.122424
 C   -7.445835    3.436751    0.187859
 C   -7.005202    1.003296    0.599477
 C   -7.827662    0.201453   -0.442985
 O   -1.452915   -3.115210    1.801974
 C    4.666839   -0.747757    3.694093
 H    7.826820   -0.227218   -4.454052
 H    7.373214    1.580202   -2.821495
 H    4.621933   -1.126450   -0.856013
 H    6.638711   -2.419639   -4.200758
 H    6.842457    3.132822   -1.259701
 H    6.017800    4.552816    0.614713
 H    3.089447    2.102064    2.906847
 H    2.974847   -2.886908    3.652663
 H    0.774926   -3.146305    2.590375
 H    1.080007    0.914092    1.147665
 H   -0.732389   -0.304216    0.635880
 H   -1.758269   -0.756518   -1.317707
 H   -3.819892   -0.378672   -2.611141
 H   -6.065166   -2.575826    0.349954
 H   -3.979439   -2.949974    1.631552
 H   -6.157269   -1.189492   -3.097756
 H   -7.081944   -2.035642   -1.855919
 H   -6.101584    1.216070   -3.142822
 H   -7.863251    2.257185   -2.540396
 H   -5.474011    3.432941   -1.740192
 H   -4.736555    1.519017   -0.927033
 H   -8.296477    3.278250   -0.484296
 H   -6.942714    4.368818   -0.093440
 H   -7.821545    3.555202    1.210418
 H   -7.809405    1.206972    1.751476
 H   -5.863257    0.223894    0.977908
 H   -9.135263    1.071950   -0.692252
 H   -8.155421   -0.732348   -0.068659
 H    4.734087    0.121342    4.363284
 H    5.461205   -0.642801    2.941366
 H    4.916325   -1.630860    4.298304
}
memory 20GB
set_num_threads(6)
psi4_io.set_default_path("/scratch/bdw2292")
set freeze_core True
E, wfn = energy('mp2/6-311++G**',return_wfn=True)
oeprop(wfn,"WIBERG_LOWDIN_INDICES")
clean()
--------------------------------------------------------------------------

    Molecular point group: c1

    Geometry (in Angstrom), charge = 0, multiplicity = 1:

       Center              X                  Y                   Z               Mass
    ------------   -----------------  -----------------  -----------------  -----------------
         C            7.042235851798    -0.344980340577    -3.686945090667    12.000000000000
         C            6.774470851798     0.666548659423    -2.755116090667    12.000000000000
         C            5.857977851798     0.437110659423    -1.708998090667    12.000000000000
         C            5.256881851798    -0.846267340577    -1.681835090667    12.000000000000
         N            5.501953851798    -1.822702340577    -2.565800090667    14.003074004430
         C            6.379931851798    -1.568949340577    -3.546560090667    12.000000000000
         C            5.512770851798     1.469305659423    -0.665623090667    12.000000000000
         C            6.040672851798     2.770804659423    -0.601632090667    12.000000000000
         C            5.576129851798     3.567394659423     0.451480909333    12.000000000000
         N            4.693306851798     3.168549659423     1.362425909333    14.003074004430
         C            4.249294851798     1.904579659423     1.219080909333    12.000000000000
         N            4.620277851798     1.061133659423     0.256741909333    14.003074004430
         N            3.346735851798     1.492702659423     2.161356909333    14.003074004430
         C            2.638837851798     0.265377659423     2.262361909333    12.000000000000
         C            3.219675851798    -0.810889340577     2.991480909333    12.000000000000
         C            2.480511851798    -2.000569340577     3.065211909333    12.000000000000
         C            1.227114851798    -2.170724340577     2.466576909333    12.000000000000
         C            0.673021851798    -1.100243340577     1.753076909333    12.000000000000
         C            1.388176851798     0.107253659423     1.655561909333    12.000000000000
         N           -0.583997148202    -1.129146340577     1.064811909333    14.003074004430
         C           -1.590593148202    -2.067829340577     1.074309909333    12.000000000000
         C           -2.818302148202    -1.811025340577     0.222152909333    12.000000000000
         C           -2.786049148202    -1.104384340577    -0.991268090667    12.000000000000
         C           -3.957387148202    -0.904304340577    -1.724984090667    12.000000000000
         C           -5.195754148202    -1.406097340577    -1.282318090667    12.000000000000
         C           -5.210381148202    -2.130478340577    -0.075162090667    12.000000000000
         C           -4.041964148202    -2.345641340577     0.658807909333    12.000000000000
         C           -6.481667148202    -1.153248340577    -2.071293090667    12.000000000000
         N           -7.251161148202     0.075634659423    -1.806178090667    14.003074004430
         C           -6.706543148202     1.370979659423    -2.272769090667    12.000000000000
         C           -5.883145148202     2.145482659423    -1.211631090667    12.000000000000
         N           -6.585783148202     2.349901659423     0.076298909333    14.003074004430
         C           -7.527336148202     3.472977659423     0.141733909333    12.000000000000
         C           -7.086703148202     1.039522659423     0.553351909333    12.000000000000
         C           -7.909163148202     0.237679659423    -0.489110090667    12.000000000000
         O           -1.534416148202    -3.078983340577     1.755848909333    15.994914619570
         C            4.585337851798    -0.711530340577     3.647967909333    12.000000000000
         H            7.745318851798    -0.190991340577    -4.500177090667     1.007825032230
         H            7.291712851798     1.616428659423    -2.867620090667     1.007825032230
         H            4.540431851798    -1.090223340577    -0.902138090667     1.007825032230
         H            6.557209851798    -2.383412340577    -4.246883090667     1.007825032230
         H            6.760955851798     3.169048659423    -1.305826090667     1.007825032230
         H            5.936298851798     4.589042659423     0.568587909333     1.007825032230
         H            3.007945851798     2.138290659423     2.860721909333     1.007825032230
         H            2.893345851798    -2.850681340577     3.606537909333     1.007825032230
         H            0.693424851798    -3.110078340577     2.544249909333     1.007825032230
         H            0.998505851798     0.950318659423     1.101539909333     1.007825032230
         H           -0.813890148202    -0.267989340577     0.589754909333     1.007825032230
         H           -1.839770148202    -0.720291340577    -1.363832090667     1.007825032230
         H           -3.901393148202    -0.342445340577    -2.657266090667     1.007825032230
         H           -6.146667148202    -2.539599340577     0.303828909333     1.007825032230
         H           -4.060940148202    -2.913747340577     1.585426909333     1.007825032230
         H           -6.238770148202    -1.153265340577    -3.143881090667     1.007825032230
         H           -7.163445148202    -1.999415340577    -1.902044090667     1.007825032230
         H           -6.183085148202     1.252296659423    -3.188947090667     1.007825032230
         H           -7.944752148202     2.293411659423    -2.586521090667     1.007825032230
         H           -5.555512148202     3.469167659423    -1.786317090667     1.007825032230
         H           -4.818056148202     1.555243659423    -0.973158090667     1.007825032230
         H           -8.377978148202     3.314476659423    -0.530421090667     1.007825032230
         H           -7.024215148202     4.405044659423    -0.139565090667     1.007825032230
         H           -7.903046148202     3.591428659423     1.164292909333     1.007825032230
         H           -7.890906148202     1.243198659423     1.705350909333     1.007825032230
         H           -5.944758148202     0.260120659423     0.931782909333     1.007825032230
         H           -9.216764148202     1.108176659423    -0.738377090667     1.007825032230
         H           -8.236922148202    -0.696121340577    -0.114784090667     1.007825032230
         H            4.652585851798     0.157568659423     4.317158909333     1.007825032230
         H            5.379703851798    -0.606574340577     2.895240909333     1.007825032230
         H            4.834823851798    -1.594633340577     4.252178909333     1.007825032230

  Charge       = 0
  Multiplicity = 1
  Basis Set: 6-311++G**
    Blend: 6-311++G**
  Basis Set: (6-311++G** AUX)
    Blend: AUG-CC-PVTZ-JKFIT

    Orbital Energies [Eh]
    ---------------------

    Doubly Occupied:

       1A    -20.527999     2A    -15.609511     3A    -15.586418
       4A    -15.578890     5A    -15.571756     6A    -15.563239
       7A    -15.561943     8A    -15.560267     9A    -11.371805
      10A    -11.365574    11A    -11.327481    12A    -11.325356
      13A    -11.316665    14A    -11.311548    15A    -11.309503
      16A    -11.305337    17A    -11.297747    18A    -11.288473
      19A    -11.287706    20A    -11.285432    21A    -11.285243
      22A    -11.278073    23A    -11.267832    24A    -11.267540
      25A    -11.267315    26A    -11.266475    27A    -11.258937
      28A    -11.257988    29A    -11.255277    30A    -11.253686
      31A    -11.247410    32A    -11.246321    33A    -11.245602
      34A    -11.242561    35A    -11.239185    36A    -11.235594
      37A    -11.226471    38A     -1.394657    39A     -1.338940
      40A     -1.264416    41A     -1.256330    42A     -1.253173
      43A     -1.240523    44A     -1.206604    45A     -1.201706
      46A     -1.172124    47A     -1.140388    48A     -1.104903
      49A     -1.069659    50A     -1.064458    51A     -1.040814
      52A     -1.037704    53A     -1.034593    54A     -1.006388
      55A     -1.003688    56A     -0.983882    57A     -0.945796
      58A     -0.930956    59A     -0.916219    60A     -0.894470
      61A     -0.872860    62A     -0.861740    63A     -0.851966
      64A     -0.846012    65A     -0.840144    66A     -0.836431
      67A     -0.831394    68A     -0.810792    69A     -0.779110
      70A     -0.750466    71A     -0.747262    72A     -0.728778
      73A     -0.715389    74A     -0.712285    75A     -0.696520
      76A     -0.686754    77A     -0.673528    78A     -0.667863
      79A     -0.661001    80A     -0.658730    81A     -0.650709
      82A     -0.649999    83A     -0.645457    84A     -0.635437
      85A     -0.628752    86A     -0.624040    87A     -0.612257
      88A     -0.608632    89A     -0.605214    90A     -0.600332
      91A     -0.597835    92A     -0.596742    93A     -0.590797
      94A     -0.587664    95A     -0.585153    96A     -0.582034
      97A     -0.580264    98A     -0.568716    99A     -0.562616
     100A     -0.547753   101A     -0.547466   102A     -0.543563
     103A     -0.537113   104A     -0.532132   105A     -0.528918
     106A     -0.522038   107A     -0.514421   108A     -0.512055
     109A     -0.507288   110A     -0.506317   111A     -0.502391
     112A     -0.498129   113A     -0.485813   114A     -0.464469
     115A     -0.443193   116A     -0.440025   117A     -0.435899
     118A     -0.434504   119A     -0.428185   120A     -0.427747
     121A     -0.405155   122A     -0.397589   123A     -0.387186
     124A     -0.387100   125A     -0.356135   126A     -0.351863
     127A     -0.351456   128A     -0.341381   129A     -0.323977
     130A     -0.318222   131A     -0.303585

  @DF-RHF Final Energy: -1572.29453358666069

   => Energetics <=

    Nuclear Repulsion Energy =           3572.6294214509402991
    One-Electron Energy =               -9243.4053226143296342
    Two-Electron Energy =                4098.4813675767290988
    Total Energy =                      -1572.2945335866606911

  Dipole Moment: [D]
     X:     1.8327      Y:     3.4586      Z:    -2.8758     Total:     4.8571

  Basis Set: (6-311++G** AUX)
    Blend: AUG-CC-PVTZ-RI
	 Reference Energy          =   -1572.2945335866606911 [Eh]
	 Singles Energy            =      -0.0000000000000000 [Eh]
	 Same-Spin Energy          =      -1.4685487347914528 [Eh]
	 Opposite-Spin Energy      =      -4.0470249127657922 [Eh]
	 Correlation Energy        =      -5.5155736475572450 [Eh]
	 Total Energy              =   -1577.8101072342178668 [Eh]

	 ================> DF-SCS-MP2 Energies <==================
	-----------------------------------------------------------
	 SCS Same-Spin Scale       =       0.3333333333333333 [-]
	 SCS Opposite-Spin Scale   =       1.2000000000000000 [-]
	 SCS Same-Spin Energy      =      -0.4895162449304842 [Eh]
	 SCS Opposite-Spin Energy  =      -4.8564298953189509 [Eh]
	 SCS Correlation Energy    =      -5.3459461402494348 [Eh]
	 SCS Total Energy          =   -1577.6404797269101437 [Eh]
	-----------------------------------------------------------

*** Psi4 exiting successfully. Buy a developer a beer!
