                               Psi4 1.3.2 release

  ==> Input File <==

--------------------------------------------------------------------------
molecule {
0 1
 C    0.563143    4.731467   -2.006587
 C    1.874195    4.549433   -1.545234
 C    2.325312    3.261074   -1.195608
 C    1.385419    2.214564   -1.368301
 N    0.131444    2.365172   -1.813072
 C   -0.265938    3.609519   -2.118760
 C    3.718627    2.971846   -0.692211
 C    4.760420    3.906910   -0.583727
 C    5.984199    3.400998   -0.131045
 N    6.197626    2.130524    0.199914
 C    5.134523    1.306608    0.087806
 N    3.927188    1.689042   -0.337725
 N    5.361436   -0.012854    0.451488
 C    4.548229   -1.203984    0.416720
 C    5.171722   -2.484296    0.521768
 C    4.336503   -3.612321    0.450226
 C    2.946779   -3.547049    0.295389
 C    2.347003   -2.285177    0.231392
 C    3.155879   -1.138956    0.284538
 N    0.947060   -2.027293    0.082322
 C   -0.107548   -2.869498   -0.179628
 C   -1.433265   -2.228256   -0.541793
 C   -1.539091   -1.047228   -1.295202
 C   -2.790205   -0.483826   -1.554310
 C   -3.979182   -1.081346   -1.091688
 C   -3.856664   -2.283368   -0.369062
 C   -2.610541   -2.855094   -0.103360
 C   -5.334596   -0.410363   -1.331093
 N   -6.122501    0.119024   -0.201535
 C   -5.666528    1.382393    0.420936
 C   -4.781314    1.229833    1.683355
 N   -5.370769    0.351219    2.722941
 C   -6.347506    0.970636    3.626461
 C   -5.757953   -0.936703    2.099635
 C   -6.654240   -0.788247    0.840508
 O   -0.009735   -4.084598   -0.110161
 C    6.671527   -2.675779    0.668923
 H    0.192546    5.716650   -2.273918
 H    2.514397    5.423423   -1.455542
 H    1.673779    1.190389   -1.159554
 H   -1.289745    3.707257   -2.476325
 H    4.669569    4.952228   -0.852619
 H    6.847886    4.058600   -0.034621
 H    6.329932   -0.129172    0.709283
 H    4.779291   -4.605863    0.508293
 H    2.339421   -4.442349    0.239911
 H    2.701261   -0.163097    0.229836
 H    0.701386   -1.047353    0.104749
 H   -0.639351   -0.553103   -1.655034
 H   -2.826416    0.453232   -2.109943
 H   -4.746111   -2.803039   -0.015945
 H   -2.528362   -3.783076    0.456959
 H   -5.184104    0.432724   -2.020411
 H   -5.979483   -1.139778   -1.842923
 H   -4.928640    2.182787   -0.553486
 H   -6.905651    2.172149    0.840661
 H   -4.513529    2.128024    2.095732
 H   -3.455356    0.518772    1.191705
 H   -7.247403    1.278022    3.082105
 H   -5.908469    1.851818    4.108296
 H   -6.633342    0.265440    4.414995
 H   -6.563724   -1.732056    3.109968
 H   -4.889239   -1.469495    1.909972
 H   -7.996744   -0.104959    1.381297
 H   -6.938756   -1.694245    0.430338
 H    7.031428   -2.287081    1.631988
 H    7.225666   -2.155792   -0.125233
 H    6.975561   -3.730541    0.620827
}
memory 20GB
set_num_threads(6)
psi4_io.set_default_path("/scratch/bdw2292")
set freeze_core True
E, wfn = energy('mp2/6-311++G**',return_wfn=True)
oeprop(wfn,"WIBERG_LOWDIN_INDICES")
clean()
--------------------------------------------------------------------------

    Molecular point group: c1

    Geometry (in Angstrom), charge = 0, multiplicity = 1:

       Center              X                  Y                   Z               Mass
    ------------   -----------------  -----------------  -----------------  -----------------
         C            0.398969859818     4.684716307599    -1.946813278061    12.000000000000
         C            1.710021859818     4.502682307599    -1.485460278061    12.000000000000
         C            2.161138859818     3.214323307599    -1.135834278061    12.000000000000
         C            1.221245859818     2.167813307599    -1.308527278061    12.000000000000
         N           -0.032729140182     2.318421307599    -1.753298278061    14.003074004430
         C           -0.430111140182     3.562768307599    -2.058986278061    12.000000000000
         C            3.554453859818     2.925095307599    -0.632437278061    12.000000000000
         C            4.596246859818     3.860159307599    -0.523953278061    12.000000000000
         C            5.820025859818     3.354247307599    -0.071271278061    12.000000000000
         N            6.033452859818     2.083773307599     0.259687721939    14.003074004430
         C            4.970349859818     1.259857307599     0.147579721939    12.000000000000
         N            3.763014859818     1.642291307599    -0.277951278061    14.003074004430
         N            5.197262859818    -0.059604692401     0.511261721939    14.003074004430
         C            4.384055859818    -1.250734692401     0.476493721939    12.000000000000
         C            5.007548859818    -2.531046692401     0.581541721939    12.000000000000
         C            4.172329859818    -3.659071692401     0.509999721939    12.000000000000
         C            2.782605859818    -3.593799692401     0.355162721939    12.000000000000
         C            2.182829859818    -2.331927692401     0.291165721939    12.000000000000
         C            2.991705859818    -1.185706692401     0.344311721939    12.000000000000
         N            0.782886859818    -2.074043692401     0.142095721939    14.003074004430
         C           -0.271721140182    -2.916248692401    -0.119854278061    12.000000000000
         C           -1.597438140182    -2.275006692401    -0.482019278061    12.000000000000
         C           -1.703264140182    -1.093978692401    -1.235428278061    12.000000000000
         C           -2.954378140182    -0.530576692401    -1.494536278061    12.000000000000
         C           -4.143355140182    -1.128096692401    -1.031914278061    12.000000000000
         C           -4.020837140182    -2.330118692401    -0.309288278061    12.000000000000
         C           -2.774714140182    -2.901844692401    -0.043586278061    12.000000000000
         C           -5.498769140182    -0.457113692401    -1.271319278061    12.000000000000
         N           -6.286674140182     0.072273307599    -0.141761278061    14.003074004430
         C           -5.830701140182     1.335642307599     0.480709721939    12.000000000000
         C           -4.945487140182     1.183082307599     1.743128721939    12.000000000000
         N           -5.534942140182     0.304468307599     2.782714721939    14.003074004430
         C           -6.511679140182     0.923885307599     3.686234721939    12.000000000000
         C           -5.922126140182    -0.983453692401     2.159408721939    12.000000000000
         C           -6.818413140182    -0.834997692401     0.900281721939    12.000000000000
         O           -0.173908140182    -4.131348692401    -0.050387278061    15.994914619570
         C            6.507353859818    -2.722529692401     0.728696721939    12.000000000000
         H            0.028372859818     5.669899307599    -2.214144278061     1.007825032230
         H            2.350223859818     5.376672307599    -1.395768278061     1.007825032230
         H            1.509605859818     1.143638307599    -1.099780278061     1.007825032230
         H           -1.453918140182     3.660506307599    -2.416551278061     1.007825032230
         H            4.505395859818     4.905477307599    -0.792845278061     1.007825032230
         H            6.683712859818     4.011849307599     0.025152721939     1.007825032230
         H            6.165758859818    -0.175922692401     0.769056721939     1.007825032230
         H            4.615117859818    -4.652613692401     0.568066721939     1.007825032230
         H            2.175247859818    -4.489099692401     0.299684721939     1.007825032230
         H            2.537087859818    -0.209847692401     0.289609721939     1.007825032230
         H            0.537212859818    -1.094103692401     0.164522721939     1.007825032230
         H           -0.803524140182    -0.599853692401    -1.595260278061     1.007825032230
         H           -2.990589140182     0.406481307599    -2.050169278061     1.007825032230
         H           -4.910284140182    -2.849789692401     0.043828721939     1.007825032230
         H           -2.692535140182    -3.829826692401     0.516732721939     1.007825032230
         H           -5.348277140182     0.385973307599    -1.960637278061     1.007825032230
         H           -6.143656140182    -1.186528692401    -1.783149278061     1.007825032230
         H           -5.092813140182     2.136036307599    -0.493712278061     1.007825032230
         H           -7.069824140182     2.125398307599     0.900434721939     1.007825032230
         H           -4.677702140182     2.081273307599     2.155505721939     1.007825032230
         H           -3.619529140182     0.472021307599     1.251478721939     1.007825032230
         H           -7.411576140182     1.231271307599     3.141878721939     1.007825032230
         H           -6.072642140182     1.805067307599     4.168069721939     1.007825032230
         H           -6.797515140182     0.218689307599     4.474768721939     1.007825032230
         H           -6.727897140182    -1.778806692401     3.169741721939     1.007825032230
         H           -5.053412140182    -1.516245692401     1.969745721939     1.007825032230
         H           -8.160917140182    -0.151709692401     1.441070721939     1.007825032230
         H           -7.102929140182    -1.740995692401     0.490111721939     1.007825032230
         H            6.867254859818    -2.333831692401     1.691761721939     1.007825032230
         H            7.061492859818    -2.202542692401    -0.065459278061     1.007825032230
         H            6.811387859818    -3.777291692401     0.680600721939     1.007825032230

  Charge       = 0
  Multiplicity = 1
  Basis Set: 6-311++G**
    Blend: 6-311++G**
  Basis Set: (6-311++G** AUX)
    Blend: AUG-CC-PVTZ-JKFIT

    Orbital Energies [Eh]
    ---------------------

    Doubly Occupied:

       1A    -20.521625     2A    -15.604160     3A    -15.601854
       4A    -15.587442     5A    -15.578287     6A    -15.574623
       7A    -15.569606     8A    -15.558932     9A    -11.375940
      10A    -11.364131    11A    -11.341359    12A    -11.334946
      13A    -11.314581    14A    -11.307980    15A    -11.302303
      16A    -11.301716    17A    -11.301623    18A    -11.300909
      19A    -11.295118    20A    -11.292977    21A    -11.289683
      22A    -11.281228    23A    -11.280799    24A    -11.265951
      25A    -11.259205    26A    -11.257104    27A    -11.253742
      28A    -11.252898    29A    -11.250618    30A    -11.247453
      31A    -11.247182    32A    -11.246315    33A    -11.246156
      34A    -11.239992    35A    -11.235409    36A    -11.230992
      37A    -11.224892    38A     -1.386952    39A     -1.344810
      40A     -1.278911    41A     -1.251526    42A     -1.250887
      43A     -1.241634    44A     -1.210085    45A     -1.204935
      46A     -1.162669    47A     -1.139846    48A     -1.116146
      49A     -1.075747    50A     -1.060548    51A     -1.048900
      52A     -1.038357    53A     -1.024428    54A     -1.008111
      55A     -1.007362    56A     -0.981374    57A     -0.948679
      58A     -0.931522    59A     -0.926799    60A     -0.901242
      61A     -0.873092    62A     -0.870942    63A     -0.858471
      64A     -0.852725    65A     -0.842167    66A     -0.831644
      67A     -0.825257    68A     -0.808501    69A     -0.779022
      70A     -0.754489    71A     -0.739653    72A     -0.731759
      73A     -0.724613    74A     -0.721835    75A     -0.699243
      76A     -0.683262    77A     -0.674240    78A     -0.667203
      79A     -0.660763    80A     -0.657183    81A     -0.652009
      82A     -0.644290    83A     -0.637848    84A     -0.631702
      85A     -0.626977    86A     -0.621594    87A     -0.619411
      88A     -0.616770    89A     -0.612074    90A     -0.606590
      91A     -0.602697    92A     -0.599642    93A     -0.595990
      94A     -0.592384    95A     -0.588477    96A     -0.582610
      97A     -0.580856    98A     -0.579280    99A     -0.568753
     100A     -0.561764   101A     -0.548227   102A     -0.544685
     103A     -0.541170   104A     -0.528812   105A     -0.523280
     106A     -0.522705   107A     -0.513940   108A     -0.509139
     109A     -0.506856   110A     -0.497581   111A     -0.495699
     112A     -0.486654   113A     -0.485046   114A     -0.481070
     115A     -0.457333   116A     -0.452414   117A     -0.443253
     118A     -0.428279   119A     -0.426140   120A     -0.417309
     121A     -0.415019   122A     -0.400614   123A     -0.397657
     124A     -0.379706   125A     -0.374050   126A     -0.346727
     127A     -0.346095   128A     -0.342528   129A     -0.316687
     130A     -0.314031   131A     -0.290299

  @DF-RHF Final Energy: -1572.26416959980770

   => Energetics <=

    Nuclear Repulsion Energy =           3718.2598966048808506
    One-Electron Energy =               -9534.2641776792697783
    Two-Electron Energy =                4243.7401114745816813
    Total Energy =                      -1572.2641695998072464

  Dipole Moment: [D]
     X:     1.7350      Y:     6.9217      Z:    -1.1113     Total:     7.2218

  Basis Set: (6-311++G** AUX)
    Blend: AUG-CC-PVTZ-RI
	 Reference Energy          =   -1572.2641695998077012 [Eh]
	 Singles Energy            =      -0.0000000000000000 [Eh]
	 Same-Spin Energy          =      -1.4708470639700923 [Eh]
	 Opposite-Spin Energy      =      -4.0504009310271361 [Eh]
	 Correlation Energy        =      -5.5212479949972284 [Eh]
	 Total Energy              =   -1577.7854175948050397 [Eh]

	 ================> DF-SCS-MP2 Energies <==================
	-----------------------------------------------------------
	 SCS Same-Spin Scale       =       0.3333333333333333 [-]
	 SCS Opposite-Spin Scale   =       1.2000000000000000 [-]
	 SCS Same-Spin Energy      =      -0.4902823546566974 [Eh]
	 SCS Opposite-Spin Energy  =      -4.8604811172325633 [Eh]
	 SCS Correlation Energy    =      -5.3507634718892607 [Eh]
	 SCS Total Energy          =   -1577.6149330716968961 [Eh]
	-----------------------------------------------------------

*** Psi4 exiting successfully. Buy a developer a beer!
