                               Psi4 1.3.2 release

  ==> Input File <==

--------------------------------------------------------------------------
molecule {
0 1
 C   -0.611772    4.162070   -0.019010
 C    0.769061    4.246956    0.207423
 C    1.574859    3.099639    0.072091
 C    0.903475    1.918954   -0.330795
 N   -0.413165    1.818484   -0.555584
 C   -1.152922    2.926474   -0.392627
 C    3.063054    3.081575    0.317696
 C    3.865365    4.210031    0.552067
 C    5.232592    3.960348    0.725304
 N    5.786351    2.749366    0.693656
 C    4.939116    1.721562    0.484484
 N    3.625239    1.859697    0.300867
 N    5.512729    0.460820    0.468009
 C    4.981732   -0.858141    0.218071
 C    5.865632   -1.929904   -0.111968
 C    5.287644   -3.183591   -0.378045
 C    3.910513   -3.435729   -0.342541
 C    3.057016   -2.387115    0.014511
 C    3.609629   -1.127900    0.295722
 N    1.630316   -2.454288    0.099095
 C    0.727748   -3.428761   -0.263348
 C   -0.735619   -3.022509   -0.278711
 C   -1.163747   -1.720790   -0.588562
 C   -2.514632   -1.378565   -0.512471
 C   -3.500733   -2.319993   -0.162074
 C   -3.061366   -3.639498    0.077400
 C   -1.709487   -3.990890    0.013289
 C   -4.986619   -1.978945    0.014754
 N   -5.524031   -0.643086   -0.320299
 C   -7.001182   -0.568896   -0.430944
 C   -7.540423    0.816691   -0.865161
 N   -7.099681    1.935617   -0.002283
 C   -7.867078    2.150850    1.230087
 C   -5.628597    1.861112    0.140760
 C   -5.087500    0.472564    0.565381
 O    1.065606   -4.567812   -0.546747
 C    7.372679   -1.763303   -0.211036
 H   -1.253854    5.031016    0.090933
 H    1.189471    5.203768    0.507399
 H    1.461112    1.004113   -0.506856
 H   -2.219607    2.809381   -0.580061
 H    3.498142    5.228618    0.580747
 H    5.945112    4.766440    0.898390
 H    6.512222    0.544127    0.577363
 H    5.935446   -4.018125   -0.643541
 H    3.501338   -4.410385   -0.578001
 H    2.954616   -0.324460    0.588337
 H    1.202170   -1.593990    0.410293
 H   -0.438934   -0.963522   -0.877341
 H   -2.782856   -0.356462   -0.767704
 H   -3.785886   -4.408393    0.345917
 H   -1.388331   -5.010121    0.213547
 H   -5.509526   -2.719554   -0.608522
 H   -5.253261   -2.148798    1.069244
 H   -7.449537   -1.558854   -1.455950
 H   -7.594511   -0.946276    0.849738
 H   -8.687071    0.816589   -0.944755
 H   -6.989362    1.095313   -2.247282
 H   -7.762480    1.298244    1.910798
 H   -8.929144    2.286619    0.995011
 H   -7.518490    3.056184    1.740546
 H   -5.224860    2.817171    1.040958
 H   -5.037156    2.199122   -1.196790
 H   -5.597674    0.186414    1.970593
 H   -4.094592    0.500123    0.630805
 H    7.827693   -1.449723    0.739402
 H    7.636809   -1.010781   -0.959437
 H    7.879858   -2.686033   -0.504804
}
memory 20GB
set_num_threads(6)
psi4_io.set_default_path("/scratch/bdw2292")
set freeze_core True
E, wfn = energy('mp2/6-311+G*',return_wfn=True)
oeprop(wfn,"WIBERG_LOWDIN_INDICES")
clean()
--------------------------------------------------------------------------

    Molecular point group: c1

    Geometry (in Angstrom), charge = 0, multiplicity = 1:

       Center              X                  Y                   Z               Mass
    ------------   -----------------  -----------------  -----------------  -----------------
         C           -0.723647046228     4.188144164705    -0.028418973072    12.000000000000
         C            0.657185953772     4.273030164705     0.198014026928    12.000000000000
         C            1.462983953772     3.125713164705     0.062682026928    12.000000000000
         C            0.791599953772     1.945028164705    -0.340203973072    12.000000000000
         N           -0.525040046228     1.844558164705    -0.564992973072    14.003074004430
         C           -1.264797046228     2.952548164705    -0.402035973072    12.000000000000
         C            2.951178953772     3.107649164705     0.308287026928    12.000000000000
         C            3.753489953772     4.236105164705     0.542658026928    12.000000000000
         C            5.120716953772     3.986422164705     0.715895026928    12.000000000000
         N            5.674475953772     2.775440164705     0.684247026928    14.003074004430
         C            4.827240953772     1.747636164705     0.475075026928    12.000000000000
         N            3.513363953772     1.885771164705     0.291458026928    14.003074004430
         N            5.400853953772     0.486894164705     0.458600026928    14.003074004430
         C            4.869856953772    -0.832066835295     0.208662026928    12.000000000000
         C            5.753756953772    -1.903829835295    -0.121376973072    12.000000000000
         C            5.175768953772    -3.157516835295    -0.387453973072    12.000000000000
         C            3.798637953772    -3.409654835295    -0.351949973072    12.000000000000
         C            2.945140953772    -2.361040835295     0.005102026928    12.000000000000
         C            3.497753953772    -1.101825835295     0.286313026928    12.000000000000
         N            1.518440953772    -2.428213835295     0.089686026928    14.003074004430
         C            0.615872953772    -3.402686835295    -0.272756973072    12.000000000000
         C           -0.847494046228    -2.996434835295    -0.288119973072    12.000000000000
         C           -1.275622046228    -1.694715835295    -0.597970973072    12.000000000000
         C           -2.626507046228    -1.352490835295    -0.521879973072    12.000000000000
         C           -3.612608046228    -2.293918835295    -0.171482973072    12.000000000000
         C           -3.173241046228    -3.613423835295     0.067991026928    12.000000000000
         C           -1.821362046228    -3.964815835295     0.003880026928    12.000000000000
         C           -5.098494046228    -1.952870835295     0.005345026928    12.000000000000
         N           -5.635906046228    -0.617011835295    -0.329707973072    14.003074004430
         C           -7.113057046228    -0.542821835295    -0.440352973072    12.000000000000
         C           -7.652298046228     0.842765164705    -0.874569973072    12.000000000000
         N           -7.211556046228     1.961691164705    -0.011691973072    14.003074004430
         C           -7.978953046228     2.176924164705     1.220678026928    12.000000000000
         C           -5.740472046228     1.887186164705     0.131351026928    12.000000000000
         C           -5.199375046228     0.498638164705     0.555972026928    12.000000000000
         O            0.953730953772    -4.541737835295    -0.556155973072    15.994914619570
         C            7.260803953772    -1.737228835295    -0.220444973072    12.000000000000
         H           -1.365729046228     5.057090164705     0.081524026928     1.007825032230
         H            1.077595953772     5.229842164705     0.497990026928     1.007825032230
         H            1.349236953772     1.030187164705    -0.516264973072     1.007825032230
         H           -2.331482046228     2.835455164705    -0.589469973072     1.007825032230
         H            3.386266953772     5.254692164705     0.571338026928     1.007825032230
         H            5.833236953772     4.792514164705     0.888981026928     1.007825032230
         H            6.400346953772     0.570201164705     0.567954026928     1.007825032230
         H            5.823570953772    -3.992050835295    -0.652949973072     1.007825032230
         H            3.389462953772    -4.384310835295    -0.587409973072     1.007825032230
         H            2.842740953772    -0.298385835295     0.578928026928     1.007825032230
         H            1.090294953772    -1.567915835295     0.400884026928     1.007825032230
         H           -0.550809046228    -0.937447835295    -0.886749973072     1.007825032230
         H           -2.894731046228    -0.330387835295    -0.777112973072     1.007825032230
         H           -3.897761046228    -4.382318835295     0.336508026928     1.007825032230
         H           -1.500206046228    -4.984046835295     0.204138026928     1.007825032230
         H           -5.621401046228    -2.693479835295    -0.617930973072     1.007825032230
         H           -5.365136046228    -2.122723835295     1.059835026928     1.007825032230
         H           -7.561412046228    -1.532779835295    -1.465358973072     1.007825032230
         H           -7.706386046228    -0.920201835295     0.840329026928     1.007825032230
         H           -8.798946046228     0.842663164705    -0.954163973072     1.007825032230
         H           -7.101237046228     1.121387164705    -2.256690973072     1.007825032230
         H           -7.874355046228     1.324318164705     1.901389026928     1.007825032230
         H           -9.041019046228     2.312693164705     0.985602026928     1.007825032230
         H           -7.630365046228     3.082258164705     1.731137026928     1.007825032230
         H           -5.336735046228     2.843245164705     1.031549026928     1.007825032230
         H           -5.149031046228     2.225196164705    -1.206198973072     1.007825032230
         H           -5.709549046228     0.212488164705     1.961184026928     1.007825032230
         H           -4.206467046228     0.526197164705     0.621396026928     1.007825032230
         H            7.715817953772    -1.423648835295     0.729993026928     1.007825032230
         H            7.524933953772    -0.984706835295    -0.968845973072     1.007825032230
         H            7.767982953772    -2.659958835295    -0.514212973072     1.007825032230

  Charge       = 0
  Multiplicity = 1
  Basis Set: 6-311+G*
    Blend: 6-311+G*
  Basis Set: (6-311+G* AUX)
    Blend: HEAVY-AUG-CC-PVTZ-JKFIT

    Orbital Energies [Eh]
    ---------------------

    Doubly Occupied:

       1A    -20.519630     2A    -15.604210     3A    -15.600238
       4A    -15.591510     5A    -15.586605     6A    -15.573979
       7A    -15.573519     8A    -15.567779     9A    -11.374519
      10A    -11.362847    11A    -11.346731    12A    -11.341760
      13A    -11.334306    14A    -11.320721    15A    -11.314250
      16A    -11.306631    17A    -11.301304    18A    -11.301267
      19A    -11.300720    20A    -11.292201    21A    -11.290004
      22A    -11.280472    23A    -11.280297    24A    -11.266051
      25A    -11.265925    26A    -11.260556    27A    -11.253023
      28A    -11.252965    29A    -11.250495    30A    -11.249260
      31A    -11.246596    32A    -11.245250    33A    -11.241618
      34A    -11.240034    35A    -11.233695    36A    -11.230468
      37A    -11.225001    38A     -1.383960    39A     -1.344936
      40A     -1.278601    41A     -1.259042    42A     -1.250738
      43A     -1.241336    44A     -1.216181    45A     -1.209445
      46A     -1.161066    47A     -1.139454    48A     -1.116094
      49A     -1.075434    50A     -1.061001    51A     -1.048606
      52A     -1.038077    53A     -1.020953    54A     -1.008903
      55A     -1.007761    56A     -0.986272    57A     -0.949063
      58A     -0.931448    59A     -0.926580    60A     -0.900973
      61A     -0.875577    62A     -0.872834    63A     -0.858371
      64A     -0.849343    65A     -0.840613    66A     -0.829671
      67A     -0.825049    68A     -0.802749    69A     -0.777195
      70A     -0.754510    71A     -0.739012    72A     -0.730075
      73A     -0.722089    74A     -0.703733    75A     -0.697596
      76A     -0.683020    77A     -0.677112    78A     -0.668713
      79A     -0.662697    80A     -0.656941    81A     -0.652349
      82A     -0.650256    83A     -0.639926    84A     -0.632090
      85A     -0.630180    86A     -0.621552    87A     -0.618749
      88A     -0.614515    89A     -0.611528    90A     -0.606466
      91A     -0.603290    92A     -0.597474    93A     -0.595980
      94A     -0.592020    95A     -0.588529    96A     -0.582554
      97A     -0.580399    98A     -0.571075    99A     -0.561519
     100A     -0.560604   101A     -0.552739   102A     -0.548110
     103A     -0.545189   104A     -0.536142   105A     -0.522729
     106A     -0.515515   107A     -0.513600   108A     -0.509292
     109A     -0.508304   110A     -0.507822   111A     -0.497049
     112A     -0.495446   113A     -0.484581   114A     -0.478487
     115A     -0.468941   116A     -0.451525   117A     -0.443079
     118A     -0.442145   119A     -0.425883   120A     -0.424715
     121A     -0.413921   122A     -0.403962   123A     -0.400033
     124A     -0.373183   125A     -0.371326   126A     -0.348042
     127A     -0.345976   128A     -0.340674   129A     -0.334903
     130A     -0.313120   131A     -0.289633

  @DF-RHF Final Energy: -1572.22135138878821

   => Energetics <=

    Nuclear Repulsion Energy =           3684.9195503925393496
    One-Electron Energy =               -9467.2290595865451905
    Two-Electron Energy =                4210.0881578052176337
    Total Energy =                      -1572.2213513887882073

  Dipole Moment: [D]
     X:    -1.2203      Y:     6.6745      Z:     2.3724     Total:     7.1879

  Basis Set: (6-311+G* AUX)
    Blend: HEAVY-AUG-CC-PVTZ-RI
	 Reference Energy          =   -1572.2213513887882073 [Eh]
	 Singles Energy            =      -0.0000000000000000 [Eh]
	 Same-Spin Energy          =      -1.4488153991302193 [Eh]
	 Opposite-Spin Energy      =      -3.8976556465171575 [Eh]
	 Correlation Energy        =      -5.3464710456473767 [Eh]
	 Total Energy              =   -1577.5678224344355840 [Eh]

	 ================> DF-SCS-MP2 Energies <==================
	-----------------------------------------------------------
	 SCS Same-Spin Scale       =       0.3333333333333333 [-]
	 SCS Opposite-Spin Scale   =       1.2000000000000000 [-]
	 SCS Same-Spin Energy      =      -0.4829384663767398 [Eh]
	 SCS Opposite-Spin Energy  =      -4.6771867758205889 [Eh]
	 SCS Correlation Energy    =      -5.1601252421973287 [Eh]
	 SCS Total Energy          =   -1577.3814766309856168 [Eh]
	-----------------------------------------------------------

*** Psi4 exiting successfully. Buy a developer a beer!
