                               Psi4 1.3.2 release

  ==> Input File <==

--------------------------------------------------------------------------
molecule {
0 1
 C    1.031588    4.816093   -1.093014
 C    2.334542    4.546609   -0.651381
 C    2.755258    3.213794   -0.472552
 C    1.796753    2.219528   -0.790549
 N    0.549650    2.454103   -1.217937
 C    0.180920    3.736573   -1.358181
 C    4.132202    2.828086    0.009812
 C    5.193647    3.711676    0.261338
 C    6.390953    3.117157    0.676782
 N    6.562297    1.809593    0.852927
 C    5.482068    1.038091    0.610213
 N    4.299497    1.506087    0.202540
 N    5.654656   -0.322875    0.812828
 C    4.816552   -1.466881    0.548999
 C    5.407541   -2.759438    0.414627
 C    4.544368   -3.832968    0.135130
 C    3.158400   -3.703005   -0.014842
 C    2.591624   -2.434016    0.142382
 C    3.427530   -1.341971    0.424491
 N    1.201539   -2.110238    0.023147
 C    0.129827   -2.852246   -0.415086
 C   -1.194800   -2.140448   -0.624287
 C   -1.305581   -0.776754   -0.947881
 C   -2.559701   -0.184433   -1.110207
 C   -3.747104   -0.927027   -0.969005
 C   -3.622206   -2.298205   -0.673788
 C   -2.371908   -2.899386   -0.509977
 C   -5.122774   -0.281556   -1.155563
 N   -6.199076   -0.636295   -0.211043
 C   -7.594904   -0.306673   -0.570554
 C   -8.032733    1.101084   -0.091581
 N   -7.789815    1.370373    1.347111
 C   -8.829993    0.912297    2.276890
 C   -6.396237    1.003469    1.695208
 C   -5.961049   -0.409261    1.231075
 O    0.216562   -4.053809   -0.618351
 C    6.900679   -3.012341    0.533082
 H    0.683062    5.835783   -1.228811
 H    2.991019    5.386837   -0.439197
 H    2.064361    1.170849   -0.718295
 H   -0.837598    3.902838   -1.705508
 H    5.135189    4.785031    0.128211
 H    7.267445    3.732544    0.878340
 H    6.612101   -0.508377    1.071715
 H    4.961686   -4.831725    0.011625
 H    2.530134   -4.555119   -0.243157
 H    2.999330   -0.360576    0.550324
 H    0.982436   -1.150170    0.247791
 H   -0.409608   -0.173599   -1.076835
 H   -2.601782    0.876671   -1.355927
 H   -4.515241   -2.914116   -0.571589
 H   -2.288432   -3.959487   -0.283438
 H   -4.983663    0.808754   -1.176151
 H   -5.502866   -0.568071   -2.147501
 H   -7.758257   -0.446309   -1.645802
 H   -8.519339   -1.316142    0.155986
 H   -9.131401    1.300730   -0.335044
 H   -7.177608    2.110563   -0.892995
 H   -8.896900   -0.181776    2.282263
 H   -9.803782    1.324318    1.987957
 H   -8.608416    1.258208    3.293034
 H   -6.232241    1.116568    2.973202
 H   -5.474828    1.999944    1.000461
 H   -6.828967   -1.409875    2.014132
 H   -4.910815   -0.625971    1.493198
 H    7.264201   -2.791651    1.546771
 H    7.472573   -2.387131   -0.166973
 H    7.177122   -4.053853    0.318386
}
memory 20GB
set_num_threads(6)
psi4_io.set_default_path("/scratch/bdw2292")
set freeze_core True
E, wfn = energy('mp2/6-311++G**',return_wfn=True)
oeprop(wfn,"WIBERG_LOWDIN_INDICES")
clean()
--------------------------------------------------------------------------

    Molecular point group: c1

    Geometry (in Angstrom), charge = 0, multiplicity = 1:

       Center              X                  Y                   Z               Mass
    ------------   -----------------  -----------------  -----------------  -----------------
         C            0.911769906321     4.810053703223    -1.075986320482    12.000000000000
         C            2.214723906321     4.540569703223    -0.634353320482    12.000000000000
         C            2.635439906321     3.207754703223    -0.455524320482    12.000000000000
         C            1.676934906321     2.213488703223    -0.773521320482    12.000000000000
         N            0.429831906321     2.448063703223    -1.200909320482    14.003074004430
         C            0.061101906321     3.730533703223    -1.341153320482    12.000000000000
         C            4.012383906321     2.822046703223     0.026839679518    12.000000000000
         C            5.073828906321     3.705636703223     0.278365679518    12.000000000000
         C            6.271134906321     3.111117703223     0.693809679518    12.000000000000
         N            6.442478906321     1.803553703223     0.869954679518    14.003074004430
         C            5.362249906321     1.032051703223     0.627240679518    12.000000000000
         N            4.179678906321     1.500047703223     0.219567679518    14.003074004430
         N            5.534837906321    -0.328914296777     0.829855679518    14.003074004430
         C            4.696733906321    -1.472920296777     0.566026679518    12.000000000000
         C            5.287722906321    -2.765477296777     0.431654679518    12.000000000000
         C            4.424549906321    -3.839007296777     0.152157679518    12.000000000000
         C            3.038581906321    -3.709044296777     0.002185679518    12.000000000000
         C            2.471805906321    -2.440055296777     0.159409679518    12.000000000000
         C            3.307711906321    -1.348010296777     0.441518679518    12.000000000000
         N            1.081720906321    -2.116277296777     0.040174679518    14.003074004430
         C            0.010008906321    -2.858285296777    -0.398058320482    12.000000000000
         C           -1.314618093679    -2.146487296777    -0.607259320482    12.000000000000
         C           -1.425399093679    -0.782793296777    -0.930853320482    12.000000000000
         C           -2.679519093679    -0.190472296777    -1.093179320482    12.000000000000
         C           -3.866922093679    -0.933066296777    -0.951977320482    12.000000000000
         C           -3.742024093679    -2.304244296777    -0.656760320482    12.000000000000
         C           -2.491726093679    -2.905425296777    -0.492949320482    12.000000000000
         C           -5.242592093679    -0.287595296777    -1.138535320482    12.000000000000
         N           -6.318894093679    -0.642334296777    -0.194015320482    14.003074004430
         C           -7.714722093679    -0.312712296777    -0.553526320482    12.000000000000
         C           -8.152551093679     1.095044703223    -0.074553320482    12.000000000000
         N           -7.909633093679     1.364333703223     1.364138679518    14.003074004430
         C           -8.949811093679     0.906257703223     2.293917679518    12.000000000000
         C           -6.516055093679     0.997429703223     1.712235679518    12.000000000000
         C           -6.080867093679    -0.415300296777     1.248102679518    12.000000000000
         O            0.096743906321    -4.059848296777    -0.601323320482    15.994914619570
         C            6.780860906321    -3.018380296777     0.550109679518    12.000000000000
         H            0.563243906321     5.829743703223    -1.211783320482     1.007825032230
         H            2.871200906321     5.380797703223    -0.422169320482     1.007825032230
         H            1.944542906321     1.164809703223    -0.701267320482     1.007825032230
         H           -0.957416093679     3.896798703223    -1.688480320482     1.007825032230
         H            5.015370906321     4.778991703223     0.145238679518     1.007825032230
         H            7.147626906321     3.726504703223     0.895367679518     1.007825032230
         H            6.492282906321    -0.514416296777     1.088742679518     1.007825032230
         H            4.841867906321    -4.837764296777     0.028652679518     1.007825032230
         H            2.410315906321    -4.561158296777    -0.226129320482     1.007825032230
         H            2.879511906321    -0.366615296777     0.567351679518     1.007825032230
         H            0.862617906321    -1.156209296777     0.264818679518     1.007825032230
         H           -0.529426093679    -0.179638296777    -1.059807320482     1.007825032230
         H           -2.721600093679     0.870631703223    -1.338899320482     1.007825032230
         H           -4.635059093679    -2.920155296777    -0.554561320482     1.007825032230
         H           -2.408250093679    -3.965526296777    -0.266410320482     1.007825032230
         H           -5.103481093679     0.802714703223    -1.159123320482     1.007825032230
         H           -5.622684093679    -0.574110296777    -2.130473320482     1.007825032230
         H           -7.878075093679    -0.452348296777    -1.628774320482     1.007825032230
         H           -8.639157093679    -1.322181296777     0.173013679518     1.007825032230
         H           -9.251219093679     1.294690703223    -0.318016320482     1.007825032230
         H           -7.297426093679     2.104523703223    -0.875967320482     1.007825032230
         H           -9.016718093679    -0.187815296777     2.299290679518     1.007825032230
         H           -9.923600093679     1.318278703223     2.004984679518     1.007825032230
         H           -8.728234093679     1.252168703223     3.310061679518     1.007825032230
         H           -6.352059093679     1.110528703223     2.990229679518     1.007825032230
         H           -5.594646093679     1.993904703223     1.017488679518     1.007825032230
         H           -6.948785093679    -1.415914296777     2.031159679518     1.007825032230
         H           -5.030633093679    -0.632010296777     1.510225679518     1.007825032230
         H            7.144382906321    -2.797690296777     1.563798679518     1.007825032230
         H            7.352754906321    -2.393170296777    -0.149945320482     1.007825032230
         H            7.057303906321    -4.059892296777     0.335413679518     1.007825032230

  Charge       = 0
  Multiplicity = 1
  Basis Set: 6-311++G**
    Blend: 6-311++G**
  Basis Set: (6-311++G** AUX)
    Blend: AUG-CC-PVTZ-JKFIT

    Orbital Energies [Eh]
    ---------------------

    Doubly Occupied:

       1A    -20.518290     2A    -15.603100     3A    -15.600208
       4A    -15.587046     5A    -15.574069     6A    -15.568862
       7A    -15.568307     8A    -15.567412     9A    -11.374870
      10A    -11.362174    11A    -11.334029    12A    -11.323599
      13A    -11.314529    14A    -11.314057    15A    -11.312541
      16A    -11.306388    17A    -11.301071    18A    -11.300226
      19A    -11.300215    20A    -11.292112    21A    -11.289157
      22A    -11.280043    23A    -11.277477    24A    -11.265336
      25A    -11.260325    26A    -11.255642    27A    -11.254054
      28A    -11.252285    29A    -11.250968    30A    -11.246567
      31A    -11.245396    32A    -11.244617    33A    -11.239377
      34A    -11.239111    35A    -11.234860    36A    -11.230524
      37A    -11.224256    38A     -1.384370    39A     -1.344302
      40A     -1.278425    41A     -1.250028    42A     -1.249663
      43A     -1.240446    44A     -1.209534    45A     -1.205209
      46A     -1.158977    47A     -1.138806    48A     -1.115431
      49A     -1.074918    50A     -1.058330    51A     -1.048148
      52A     -1.037246    53A     -1.019208    54A     -1.007197
      55A     -1.003400    56A     -0.976646    57A     -0.946441
      58A     -0.929664    59A     -0.926215    60A     -0.900404
      61A     -0.872317    62A     -0.866412    63A     -0.857643
      64A     -0.843864    65A     -0.842764    66A     -0.830554
      67A     -0.824907    68A     -0.805661    69A     -0.776513
      70A     -0.753344    71A     -0.738691    72A     -0.729577
      73A     -0.721382    74A     -0.701691    75A     -0.695389
      76A     -0.682714    77A     -0.680045    78A     -0.668595
      79A     -0.658332    80A     -0.651549    81A     -0.650870
      82A     -0.646882    83A     -0.635747    84A     -0.626477
      85A     -0.625596    86A     -0.620221    87A     -0.613657
      88A     -0.610084    89A     -0.605788    90A     -0.602779
      91A     -0.601080    92A     -0.595734    93A     -0.594611
      94A     -0.591641    95A     -0.588374    96A     -0.583953
      97A     -0.580100    98A     -0.574573    99A     -0.561195
     100A     -0.560271   101A     -0.548904   102A     -0.547248
     103A     -0.543973   104A     -0.539870   105A     -0.522735
     106A     -0.519689   107A     -0.513093   108A     -0.508342
     109A     -0.504344   110A     -0.495418   111A     -0.492477
     112A     -0.491942   113A     -0.484459   114A     -0.478477
     115A     -0.473939   116A     -0.451780   117A     -0.442827
     118A     -0.432411   119A     -0.426064   120A     -0.424224
     121A     -0.414325   122A     -0.399984   123A     -0.386550
     124A     -0.385696   125A     -0.372968   126A     -0.345822
     127A     -0.340508   128A     -0.337497   129A     -0.318729
     130A     -0.313651   131A     -0.289982

  @DF-RHF Final Energy: -1572.31939046210414

   => Energetics <=

    Nuclear Repulsion Energy =           3627.1526434062257067
    One-Electron Energy =               -9352.4728598472102021
    Two-Electron Energy =                4153.0008259788810392
    Total Energy =                      -1572.3193904621039110

  Dipole Moment: [D]
     X:     0.8254      Y:     6.8586      Z:     0.3450     Total:     6.9167

  Basis Set: (6-311++G** AUX)
    Blend: AUG-CC-PVTZ-RI
	 Reference Energy          =   -1572.3193904621041384 [Eh]
	 Singles Energy            =      -0.0000000000000000 [Eh]
	 Same-Spin Energy          =      -1.4677074314968772 [Eh]
	 Opposite-Spin Energy      =      -4.0450232536240005 [Eh]
	 Correlation Energy        =      -5.5127306851208777 [Eh]
	 Total Energy              =   -1577.8321211472250525 [Eh]

	 ================> DF-SCS-MP2 Energies <==================
	-----------------------------------------------------------
	 SCS Same-Spin Scale       =       0.3333333333333333 [-]
	 SCS Opposite-Spin Scale   =       1.2000000000000000 [-]
	 SCS Same-Spin Energy      =      -0.4892358104989590 [Eh]
	 SCS Opposite-Spin Energy  =      -4.8540279043488006 [Eh]
	 SCS Correlation Energy    =      -5.3432637148477600 [Eh]
	 SCS Total Energy          =   -1577.6626541769519463 [Eh]
	-----------------------------------------------------------

*** Psi4 exiting successfully. Buy a developer a beer!
