 Gaussian 09, Revision A.02,
 Gaussian 09:  EM64L-G09RevA.02 11-Jun-2009

 --------------------------------------------------
 #P opt=(,maxcycle=400) wB97XD/6-31G* MaxDisk=100GB
 --------------------------------------------------

 --------------------------------------------------------------
 MOLECULE0 Rotatable Bond Optimization on node37.bme.utexas.edu
 --------------------------------------------------------------
 Symbolic Z-matrix:
 Charge =  0 Multiplicity = 1

 SCF Done:  E(RwB97XD) =  -1581.52960001     A.U. after   16 cycles
 SCF Done:  E(RwB97XD) =  -1581.58858205     A.U. after   14 cycles
 SCF Done:  E(RwB97XD) =  -1581.65736489     A.U. after   14 cycles
 SCF Done:  E(RwB97XD) =  -1581.72795285     A.U. after   17 cycles
 SCF Done:  E(RwB97XD) =  -1581.69257890     A.U. after   16 cycles
 SCF Done:  E(RwB97XD) =  -1581.73029458     A.U. after   15 cycles
 SCF Done:  E(RwB97XD) =  -1581.75503357     A.U. after   15 cycles
 SCF Done:  E(RwB97XD) =  -1581.69678936     A.U. after   17 cycles
 SCF Done:  E(RwB97XD) =  -1581.75786402     A.U. after   17 cycles
 SCF Done:  E(RwB97XD) =  -1581.75648577     A.U. after   17 cycles
 SCF Done:  E(RwB97XD) =  -1581.76307428     A.U. after   13 cycles
 SCF Done:  E(RwB97XD) =  -1581.76312833     A.U. after   13 cycles
 SCF Done:  E(RwB97XD) =  -1581.76316163     A.U. after   12 cycles
 SCF Done:  E(RwB97XD) =  -1581.76321346     A.U. after   12 cycles
 SCF Done:  E(RwB97XD) =  -1581.76321466     A.U. after   10 cycles
 SCF Done:  E(RwB97XD) =  -1581.76321588     A.U. after   10 cycles
 SCF Done:  E(RwB97XD) =  -1581.76321698     A.U. after    8 cycles
 SCF Done:  E(RwB97XD) =  -1581.76321674     A.U. after    8 cycles
 SCF Done:  E(RwB97XD) =  -1581.76321641     A.U. after    7 cycles
 SCF Done:  E(RwB97XD) =  -1581.76321611     A.U. after    7 cycles
 Optimization completed.
    -- Stationary point found.

                         Standard orientation:
 ---------------------------------------------------------------------
 Center     Atomic      Atomic             Coordinates (Angstroms)
 Number     Number       Type             X           Y           Z
 ---------------------------------------------------------------------
      1          6           0       -0.474047    4.275010   -0.771821
      2          6           0        0.870478    4.192430   -0.430512
      3          6           0        1.546934    2.990395   -0.631384
      4          6           0        0.820515    1.926192   -1.182137
      5          7           0       -0.468448    1.989853   -1.511253
      6          6           0       -1.097377    3.149938   -1.300505
      7          6           0        2.968821    2.789379   -0.253680
      8          6           0        3.899623    3.819511   -0.154098
      9          6           0        5.185584    3.447146    0.235881
     10          7           0        5.545125    2.197854    0.497003
     11          6           0        4.571897    1.275253    0.354516
     12          7           0        3.311837    1.523728   -0.002090
     13          7           0        4.960928   -0.010683    0.612827
     14          6           0        4.245291   -1.216847    0.494487
     15          6           0        4.969224   -2.426411    0.478851
     16          6           0        4.248691   -3.609343    0.337939
     17          6           0        2.862843   -3.650762    0.196067
     18          6           0        2.171427   -2.443300    0.218303
     19          6           0        2.859678   -1.243259    0.394493
     20          7           0        0.784724   -2.305621    0.041497
     21          6           0       -0.154960   -3.232679   -0.330140
     22          6           0       -1.474350   -2.601180   -0.674613
     23          6           0       -1.549224   -1.358053   -1.309869
     24          6           0       -2.781452   -0.778720   -1.574009
     25          6           0       -3.964981   -1.410040   -1.191592
     26          6           0       -3.883517   -2.677612   -0.608316
     27          6           0       -2.653501   -3.274605   -0.357775
     28          6           0       -5.301941   -0.704233   -1.349061
     29          7           0       -5.692318    0.225915   -0.300413
     30          6           0       -5.025393    1.522594   -0.248041
     31          6           0       -3.815730    1.577463    0.702805
     32          7           0       -4.113502    1.068546    2.038747
     33          6           0       -4.902534    1.977637    2.850859
     34          6           0       -4.679641   -0.274844    1.939532
     35          6           0       -5.914445   -0.340452    1.025396
     36          8           0        0.037286   -4.436460   -0.364730
     37          6           0        6.472090   -2.441982    0.597491
     38          1           0       -1.033494    5.191694   -0.619308
     39          1           0        1.375563    5.045630    0.013112
     40          1           0        1.324672    0.980828   -1.365932
     41          1           0       -2.152326    3.176699   -1.564918
     42          1           0        3.660471    4.851283   -0.379896
     43          1           0        5.966971    4.197438    0.339062
     44          1           0        5.942099   -0.076601    0.839018
     45          1           0        4.797039   -4.547949    0.324269
     46          1           0        2.333922   -4.584876    0.065547
     47          1           0        2.314541   -0.311938    0.420304
     48          1           0        0.446006   -1.359273    0.133112
     49          1           0       -0.652633   -0.832953   -1.626188
     50          1           0       -2.809155    0.190776   -2.064838
     51          1           0       -4.798353   -3.197542   -0.332476
     52          1           0       -2.590004   -4.257269    0.098951
     53          1           0       -5.307311   -0.148947   -2.294826
     54          1           0       -6.094287   -1.460035   -1.423818
     55          1           0       -4.723302    1.804035   -1.263977
     56          1           0       -5.766840    2.267769    0.077780
     57          1           0       -3.458436    2.611265    0.792526
     58          1           0       -2.990821    0.982221    0.295833
     59          1           0       -5.912463    2.205344    2.466507
     60          1           0       -4.364808    2.926980    2.951297
     61          1           0       -5.018633    1.550670    3.852999
     62          1           0       -4.938492   -0.623466    2.946701
     63          1           0       -3.897648   -0.938337    1.552185
     64          1           0       -6.743227    0.207921    1.497176
     65          1           0       -6.248148   -1.378234    0.914256
     66          1           0        6.818105   -2.031326    1.555949
     67          1           0        6.951694   -1.864594   -0.203571
     68          1           0        6.852565   -3.464442    0.532391
 ---------------------------------------------------------------------

 The electronic state is 1-A.
 Alpha  occ. eigenvalues --  -19.23412 -14.49282 -14.48320 -14.46751 -14.46095
 Alpha  occ. eigenvalues --  -14.45764 -14.43616 -14.43135 -10.41777 -10.40081
 Alpha  occ. eigenvalues --  -10.37614 -10.36337 -10.35325 -10.35084 -10.34623
 Alpha  occ. eigenvalues --  -10.34135 -10.34016 -10.33622 -10.32863 -10.32367
 Alpha  occ. eigenvalues --  -10.31860 -10.31493 -10.31177 -10.30936 -10.30707
 Alpha  occ. eigenvalues --  -10.30688 -10.30676 -10.30585 -10.30534 -10.30403
 Alpha  occ. eigenvalues --  -10.30377 -10.30220 -10.30020 -10.29974 -10.29575
 Alpha  occ. eigenvalues --  -10.28741 -10.28405  -1.13444  -1.12295  -1.06322
 Alpha  occ. eigenvalues --   -1.04565  -1.03829  -1.03633  -1.00715  -0.99558
 Alpha  occ. eigenvalues --   -0.96086  -0.94671  -0.93098  -0.89777  -0.88124
 Alpha  occ. eigenvalues --   -0.87388  -0.86228  -0.85400  -0.84542  -0.83783
 Alpha  occ. eigenvalues --   -0.81888  -0.79581  -0.78269  -0.77798  -0.76320
 Alpha  occ. eigenvalues --   -0.73881  -0.73301  -0.73025  -0.72620  -0.70870
 Alpha  occ. eigenvalues --   -0.70314  -0.69615  -0.68039  -0.66413  -0.65150
 Alpha  occ. eigenvalues --   -0.63656  -0.63408  -0.62228  -0.61762  -0.60211
 Alpha  occ. eigenvalues --   -0.58848  -0.58045  -0.57569  -0.56612  -0.56100
 Alpha  occ. eigenvalues --   -0.55817  -0.55237  -0.55134  -0.54965  -0.54255
 Alpha  occ. eigenvalues --   -0.53868  -0.53240  -0.53155  -0.52612  -0.52174
 Alpha  occ. eigenvalues --   -0.51912  -0.51509  -0.51371  -0.50999  -0.50575
 Alpha  occ. eigenvalues --   -0.50364  -0.50117  -0.49973  -0.49497  -0.48335
 Alpha  occ. eigenvalues --   -0.47217  -0.46906  -0.46619  -0.46319  -0.46211
 Alpha  occ. eigenvalues --   -0.45762  -0.45236  -0.44797  -0.44045  -0.43932
 Alpha  occ. eigenvalues --   -0.43327  -0.43016  -0.42141  -0.41766  -0.41439
 Alpha  occ. eigenvalues --   -0.40964  -0.40777  -0.39912  -0.38187  -0.37592
 Alpha  occ. eigenvalues --   -0.35821  -0.35293  -0.34001  -0.33447  -0.33373
 Alpha  occ. eigenvalues --   -0.32818  -0.31903  -0.30772  -0.29115  -0.27080
 Alpha  occ. eigenvalues --   -0.24996
 Alpha virt. eigenvalues --   -0.00292   0.02872   0.03587   0.04481   0.06434
 Alpha virt. eigenvalues --    0.07259   0.08203   0.10371   0.13887   0.14812
 Alpha virt. eigenvalues --    0.15729   0.16386   0.17252   0.17441   0.18251

 Mulliken atomic charges:
              1
     1  C   -0.197846
     2  C   -0.154401
     3  C    0.035490
     4  C    0.009579
     5  N   -0.437530
     6  C    0.035733
     7  C    0.295171
     8  C   -0.254767
     9  C    0.049025
    10  N   -0.493041
    11  C    0.714356
    12  N   -0.568410
    13  N   -0.802044
    14  C    0.291470
    15  C    0.119870
    16  C   -0.240381
    17  C   -0.191294
    18  C    0.358013
    19  C   -0.269614
    20  N   -0.757830
    21  C    0.585618
    22  C    0.015201
    23  C   -0.205335
    24  C   -0.217889
    25  C    0.155961
    26  C   -0.223074
    27  C   -0.178376
    28  C   -0.263559
    29  N   -0.382225
    30  C   -0.183907
    31  C   -0.181770
    32  N   -0.385718
    33  C   -0.349278
    34  C   -0.182639
    35  C   -0.186511
    36  O   -0.513247
    37  C   -0.607356
    38  H    0.186141
    39  H    0.186720
    40  H    0.198146
    41  H    0.179042
    42  H    0.180737
    43  H    0.189489
    44  H    0.369212
    45  H    0.160822
    46  H    0.213090
    47  H    0.199340
    48  H    0.361543
    49  H    0.185453
    50  H    0.172072
    51  H    0.163616
    52  H    0.195594
    53  H    0.170281
    54  H    0.168916
    55  H    0.148149
    56  H    0.158348
    57  H    0.141676
    58  H    0.174891
    59  H    0.135264
    60  H    0.164120
    61  H    0.167871
    62  H    0.153491
    63  H    0.172910
    64  H    0.159432
    65  H    0.154995
    66  H    0.178037
    67  H    0.182743
    68  H    0.190417
 Sum of Mulliken atomic charges =   0.00000

 Dipole moment (field-independent basis, Debye):
    X=              0.5795    Y=              6.5717    Z=              0.4343  Tot=              6.6114
 Quadrupole moment (field-independent basis, Debye-Ang):
   XX=           -193.2966   YY=           -202.5048   ZZ=           -220.4891
   XY=              3.1086   XZ=             -1.2825   YZ=             -5.2195

 Normal termination of Gaussian 09 at Wed Mar 25 14:37:01 2020.
