                               Psi4 1.3.2 release

  ==> Input File <==

--------------------------------------------------------------------------
molecule {
0 1
 C    0.947084    4.816741   -1.313497
 C    2.241410    4.569559   -0.836225
 C    2.676446    3.244128   -0.642270
 C    1.746967    2.232167   -0.987596
 N    0.506846    2.447652   -1.445182
 C    0.120120    3.723846   -1.597807
 C    4.038050    2.875712   -0.108732
 C    5.094764    3.772152    0.121210
 C    6.281980    3.205486    0.601693
 N    6.447530    1.908433    0.853852
 C    5.375873    1.124264    0.620868
 N    4.206932    1.568133    0.157419
 N    5.544939   -0.220355    0.897620
 C    4.717181   -1.378604    0.671153
 C    5.313982   -2.674762    0.622236
 C    4.465416   -3.764890    0.365733
 C    3.085788   -3.650431    0.157868
 C    2.505762   -2.379881    0.239063
 C    3.330267   -1.274222    0.500892
 N    1.115476   -2.081020    0.056436
 C    0.064835   -2.854336   -0.382194
 C   -1.255801   -2.160528   -0.667169
 C   -1.375577   -0.816155   -1.060559
 C   -2.634883   -0.246407   -1.266797
 C   -3.819573   -0.994576   -1.119381
 C   -3.680209   -2.352187   -0.770804
 C   -2.426866   -2.928237   -0.551102
 C   -5.195674   -0.362735   -1.358695
 N   -6.358471   -0.617855   -0.485984
 C   -7.523817    0.284353   -0.618386
 C   -7.452545    1.519431    0.315270
 N   -7.238083    1.188233    1.745103
 C   -8.436025    0.838067    2.517709
 C   -6.086034    0.260212    1.863855
 C   -6.155429   -0.980242    0.936265
 O    0.165735   -4.063352   -0.527845
 C    6.802618   -2.913552    0.812052
 H    0.586448    5.830528   -1.460368
 H    2.880970    5.417420   -0.602741
 H    2.023431    1.185099   -0.912747
 H   -0.893261    3.863937   -1.971236
 H    5.047546    4.838029   -0.065499
 H    7.166412    3.809755    0.801853
 H    6.495683   -0.384350    1.192345
 H    4.891337   -4.766059    0.312849
 H    2.470144   -4.515198   -0.055345
 H    2.885270   -0.296088    0.580544
 H    0.877106   -1.114929    0.229231
 H   -0.483661   -0.210221   -1.205520
 H   -2.683502    0.804601   -1.552062
 H   -4.565735   -2.980518   -0.683615
 H   -2.340018   -3.979232   -0.286059
 H   -5.030215    0.722636   -1.414648
 H   -5.532399   -0.700257   -2.350495
 H   -7.656739    0.655722   -1.852017
 H   -8.711520   -0.476004   -0.284345
 H   -8.463172    2.202649    0.205587
 H   -6.306493    2.355211   -0.105053
 H   -8.878974   -0.095204    2.151239
 H   -9.182616    1.637104    2.441865
 H   -8.182285    0.717176    3.577126
 H   -5.979722   -0.141056    3.166099
 H   -4.854475    1.036295    1.520420
 H   -7.301320   -1.785155    1.353089
 H   -5.374761   -1.554835    1.046859
 H    7.158565   -2.598130    1.803462
 H    7.387759   -2.364077    0.069209
 H    7.077873   -3.966377    0.708371
}
memory 20GB
set_num_threads(6)
psi4_io.set_default_path("/scratch/bdw2292")
set freeze_core True
E, wfn = energy('mp2/6-311++G**',return_wfn=True)
oeprop(wfn,"WIBERG_LOWDIN_INDICES")
clean()
--------------------------------------------------------------------------

    Molecular point group: c1

    Geometry (in Angstrom), charge = 0, multiplicity = 1:

       Center              X                  Y                   Z               Mass
    ------------   -----------------  -----------------  -----------------  -----------------
         C            0.847376860142     4.805163714101    -1.288472253657    12.000000000000
         C            2.141702860142     4.557981714101    -0.811200253657    12.000000000000
         C            2.576738860142     3.232550714101    -0.617245253657    12.000000000000
         C            1.647259860142     2.220589714101    -0.962571253657    12.000000000000
         N            0.407138860142     2.436074714101    -1.420157253657    14.003074004430
         C            0.020412860142     3.712268714101    -1.572782253657    12.000000000000
         C            3.938342860142     2.864134714101    -0.083707253657    12.000000000000
         C            4.995056860142     3.760574714101     0.146234746343    12.000000000000
         C            6.182272860142     3.193908714101     0.626717746343    12.000000000000
         N            6.347822860142     1.896855714101     0.878876746343    14.003074004430
         C            5.276165860142     1.112686714101     0.645892746343    12.000000000000
         N            4.107224860142     1.556555714101     0.182443746343    14.003074004430
         N            5.445231860142    -0.231932285899     0.922644746343    14.003074004430
         C            4.617473860142    -1.390181285899     0.696177746343    12.000000000000
         C            5.214274860142    -2.686339285899     0.647260746343    12.000000000000
         C            4.365708860142    -3.776467285899     0.390757746343    12.000000000000
         C            2.986080860142    -3.662008285899     0.182892746343    12.000000000000
         C            2.406054860142    -2.391458285899     0.264087746343    12.000000000000
         C            3.230559860142    -1.285799285899     0.525916746343    12.000000000000
         N            1.015768860142    -2.092597285899     0.081460746343    14.003074004430
         C           -0.034872139858    -2.865913285899    -0.357169253657    12.000000000000
         C           -1.355508139858    -2.172105285899    -0.642144253657    12.000000000000
         C           -1.475284139858    -0.827732285899    -1.035534253657    12.000000000000
         C           -2.734590139858    -0.257984285899    -1.241772253657    12.000000000000
         C           -3.919280139858    -1.006153285899    -1.094356253657    12.000000000000
         C           -3.779916139858    -2.363764285899    -0.745779253657    12.000000000000
         C           -2.526573139858    -2.939814285899    -0.526077253657    12.000000000000
         C           -5.295381139858    -0.374312285899    -1.333670253657    12.000000000000
         N           -6.458178139858    -0.629432285899    -0.460959253657    14.003074004430
         C           -7.623524139858     0.272775714101    -0.593361253657    12.000000000000
         C           -7.552252139858     1.507853714101     0.340294746343    12.000000000000
         N           -7.337790139858     1.176655714101     1.770127746343    14.003074004430
         C           -8.535732139858     0.826489714101     2.542733746343    12.000000000000
         C           -6.185741139858     0.248634714101     1.888879746343    12.000000000000
         C           -6.255136139858    -0.991819285899     0.961289746343    12.000000000000
         O            0.066027860142    -4.074929285899    -0.502820253657    15.994914619570
         C            6.702910860142    -2.925129285899     0.837076746343    12.000000000000
         H            0.486740860142     5.818950714101    -1.435343253657     1.007825032230
         H            2.781262860142     5.405842714101    -0.577716253657     1.007825032230
         H            1.923723860142     1.173521714101    -0.887722253657     1.007825032230
         H           -0.992968139858     3.852359714101    -1.946211253657     1.007825032230
         H            4.947838860142     4.826451714101    -0.040474253657     1.007825032230
         H            7.066704860142     3.798177714101     0.826877746343     1.007825032230
         H            6.395975860142    -0.395927285899     1.217369746343     1.007825032230
         H            4.791629860142    -4.777636285899     0.337873746343     1.007825032230
         H            2.370436860142    -4.526775285899    -0.030320253657     1.007825032230
         H            2.785562860142    -0.307665285899     0.605568746343     1.007825032230
         H            0.777398860142    -1.126506285899     0.254255746343     1.007825032230
         H           -0.583368139858    -0.221798285899    -1.180495253657     1.007825032230
         H           -2.783209139858     0.793023714101    -1.527037253657     1.007825032230
         H           -4.665442139858    -2.992095285899    -0.658590253657     1.007825032230
         H           -2.439725139858    -3.990809285899    -0.261034253657     1.007825032230
         H           -5.129922139858     0.711058714101    -1.389623253657     1.007825032230
         H           -5.632106139858    -0.711834285899    -2.325470253657     1.007825032230
         H           -7.756446139858     0.644144714101    -1.826992253657     1.007825032230
         H           -8.811227139858    -0.487581285899    -0.259320253657     1.007825032230
         H           -8.562879139858     2.191071714101     0.230611746343     1.007825032230
         H           -6.406200139858     2.343633714101    -0.080028253657     1.007825032230
         H           -8.978681139858    -0.106781285899     2.176263746343     1.007825032230
         H           -9.282323139858     1.625526714101     2.466889746343     1.007825032230
         H           -8.281992139858     0.705598714101     3.602150746343     1.007825032230
         H           -6.079429139858    -0.152633285899     3.191123746343     1.007825032230
         H           -4.954182139858     1.024717714101     1.545444746343     1.007825032230
         H           -7.401027139858    -1.796732285899     1.378113746343     1.007825032230
         H           -5.474468139858    -1.566412285899     1.071883746343     1.007825032230
         H            7.058857860142    -2.609707285899     1.828486746343     1.007825032230
         H            7.288051860142    -2.375654285899     0.094233746343     1.007825032230
         H            6.978165860142    -3.977954285899     0.733395746343     1.007825032230

  Charge       = 0
  Multiplicity = 1
  Basis Set: 6-311++G**
    Blend: 6-311++G**
  Basis Set: (6-311++G** AUX)
    Blend: AUG-CC-PVTZ-JKFIT

    Orbital Energies [Eh]
    ---------------------

    Doubly Occupied:

       1A    -20.519897     2A    -15.603174     3A    -15.601338
       4A    -15.586657     5A    -15.573143     6A    -15.567705
       7A    -15.564144     8A    -15.564098     9A    -11.373701
      10A    -11.364039    11A    -11.333984    12A    -11.323871
      13A    -11.322244    14A    -11.315892    15A    -11.313537
      16A    -11.300993    17A    -11.300798    18A    -11.299953
      19A    -11.292692    20A    -11.289211    21A    -11.286325
      22A    -11.279940    23A    -11.274566    24A    -11.265489
      25A    -11.265138    26A    -11.255965    27A    -11.253550
      28A    -11.253439    29A    -11.252205    30A    -11.247879
      31A    -11.246947    32A    -11.246748    33A    -11.242705
      34A    -11.239227    35A    -11.233731    36A    -11.231301
      37A    -11.224606    38A     -1.385430    39A     -1.345019
      40A     -1.278087    41A     -1.250073    42A     -1.246861
      43A     -1.241152    44A     -1.209324    45A     -1.201752
      46A     -1.160877    47A     -1.139361    48A     -1.115643
      49A     -1.074826    50A     -1.059301    51A     -1.047924
      52A     -1.037748    53A     -1.021670    54A     -1.007355
      55A     -1.001371    56A     -0.975696    57A     -0.946874
      58A     -0.929253    59A     -0.926193    60A     -0.900490
      61A     -0.872358    62A     -0.869857    63A     -0.857835
      64A     -0.843551    65A     -0.839743    66A     -0.827189
      67A     -0.820897    68A     -0.805492    69A     -0.777462
      70A     -0.754139    71A     -0.738874    72A     -0.730317
      73A     -0.721680    74A     -0.702190    75A     -0.695908
      76A     -0.682351    77A     -0.678302    78A     -0.668104
      79A     -0.657198    80A     -0.651877    81A     -0.650856
      82A     -0.643496    83A     -0.634100    84A     -0.628274
      85A     -0.621564    86A     -0.619891    87A     -0.613163
      88A     -0.608610    89A     -0.606198    90A     -0.602008
      91A     -0.601755    92A     -0.597680    93A     -0.595574
      94A     -0.590758    95A     -0.586219    96A     -0.584470
      97A     -0.579782    98A     -0.575294    99A     -0.561153
     100A     -0.556866   101A     -0.549539   102A     -0.547344
     103A     -0.544093   104A     -0.523378   105A     -0.521216
     106A     -0.517579   107A     -0.513620   108A     -0.508976
     109A     -0.506761   110A     -0.500123   111A     -0.496117
     112A     -0.492912   113A     -0.484354   114A     -0.478315
     115A     -0.463838   116A     -0.451383   117A     -0.442536
     118A     -0.432115   119A     -0.427405   120A     -0.425201
     121A     -0.413865   122A     -0.402718   123A     -0.399926
     124A     -0.383822   125A     -0.373006   126A     -0.345789
     127A     -0.343090   128A     -0.338309   129A     -0.318182
     130A     -0.313977   131A     -0.290222

  @DF-RHF Final Energy: -1572.30967040574683

   => Energetics <=

    Nuclear Repulsion Energy =           3638.5720835166493998
    One-Electron Energy =               -9375.3318052673203056
    Two-Electron Energy =                4164.4500513449238497
    Total Energy =                      -1572.3096704057470561

  Dipole Moment: [D]
     X:     0.8574      Y:     6.8127      Z:     0.1757     Total:     6.8687

  Basis Set: (6-311++G** AUX)
    Blend: AUG-CC-PVTZ-RI
	 Reference Energy          =   -1572.3096704057468287 [Eh]
	 Singles Energy            =      -0.0000000000000000 [Eh]
	 Same-Spin Energy          =      -1.4678748432479471 [Eh]
	 Opposite-Spin Energy      =      -4.0448926196103283 [Eh]
	 Correlation Energy        =      -5.5127674628582755 [Eh]
	 Total Energy              =   -1577.8224378686049931 [Eh]

	 ================> DF-SCS-MP2 Energies <==================
	-----------------------------------------------------------
	 SCS Same-Spin Scale       =       0.3333333333333333 [-]
	 SCS Opposite-Spin Scale   =       1.2000000000000000 [-]
	 SCS Same-Spin Energy      =      -0.4892916144159823 [Eh]
	 SCS Opposite-Spin Energy  =      -4.8538711435323938 [Eh]
	 SCS Correlation Energy    =      -5.3431627579483765 [Eh]
	 SCS Total Energy          =   -1577.6528331636952771 [Eh]
	-----------------------------------------------------------

*** Psi4 exiting successfully. Buy a developer a beer!
