 Gaussian 09, Revision A.02,
 Gaussian 09:  EM64L-G09RevA.02 11-Jun-2009

 --------------------------------------------------
 #P opt=(,maxcycle=400) wB97XD/6-31G* MaxDisk=100GB
 --------------------------------------------------

 -----------------------------------------------------------------
 MOLECULE0 Rotatable Bond Optimization on g2-node38.bme.utexas.edu
 -----------------------------------------------------------------
 Symbolic Z-matrix:
 Charge =  0 Multiplicity = 1

 SCF Done:  E(RwB97XD) =  -1581.52033015     A.U. after   16 cycles
 SCF Done:  E(RwB97XD) =  -1581.58038685     A.U. after   13 cycles
 SCF Done:  E(RwB97XD) =  -1581.67861313     A.U. after   14 cycles
 SCF Done:  E(RwB97XD) =  -1581.72694475     A.U. after   14 cycles
 SCF Done:  E(RwB97XD) =  -1581.74923775     A.U. after   14 cycles
 SCF Done:  E(RwB97XD) =  -1581.75372240     A.U. after   14 cycles
 SCF Done:  E(RwB97XD) =  -1581.75605981     A.U. after   14 cycles
 SCF Done:  E(RwB97XD) =  -1581.75651546     A.U. after   14 cycles
 SCF Done:  E(RwB97XD) =  -1581.75652200     A.U. after   14 cycles
 SCF Done:  E(RwB97XD) =  -1581.75700690     A.U. after   12 cycles
 SCF Done:  E(RwB97XD) =  -1581.75753674     A.U. after   12 cycles
 SCF Done:  E(RwB97XD) =  -1581.75760114     A.U. after   12 cycles
 SCF Done:  E(RwB97XD) =  -1581.75765016     A.U. after   12 cycles
 SCF Done:  E(RwB97XD) =  -1581.75764701     A.U. after   13 cycles
 SCF Done:  E(RwB97XD) =  -1581.75767373     A.U. after   12 cycles
 SCF Done:  E(RwB97XD) =  -1581.75767669     A.U. after   10 cycles
 SCF Done:  E(RwB97XD) =  -1581.75767673     A.U. after   10 cycles
 SCF Done:  E(RwB97XD) =  -1581.75767701     A.U. after    8 cycles
 SCF Done:  E(RwB97XD) =  -1581.75767707     A.U. after    7 cycles
 SCF Done:  E(RwB97XD) =  -1581.75767709     A.U. after    6 cycles
 Optimization completed.
    -- Stationary point found.

                         Standard orientation:
 ---------------------------------------------------------------------
 Center     Atomic      Atomic             Coordinates (Angstroms)
 Number     Number       Type             X           Y           Z
 ---------------------------------------------------------------------
      1          6           0       -8.549080   -3.376833   -0.597957
      2          6           0       -7.211183   -3.041280   -0.756246
      3          6           0       -6.721215   -1.895879   -0.128558
      4          6           0       -7.622250   -1.139974    0.630707
      5          7           0       -8.906066   -1.452070    0.795114
      6          6           0       -9.351325   -2.553936    0.185946
      7          6           0       -5.305662   -1.467086   -0.240235
      8          6           0       -4.272988   -2.364851   -0.542253
      9          6           0       -2.998665   -1.831189   -0.615349
     10          7           0       -2.723065   -0.543397   -0.408906
     11          6           0       -3.775039    0.227953   -0.110348
     12          7           0       -5.055108   -0.178999   -0.022054
     13          7           0       -3.616845    1.564018    0.132163
     14          6           0       -2.485404    2.393983    0.172966
     15          6           0       -2.706208    3.760628    0.445137
     16          6           0       -1.597537    4.596630    0.499255
     17          6           0       -0.296587    4.147384    0.297749
     18          6           0       -0.101548    2.795126    0.027158
     19          6           0       -1.191901    1.922846   -0.035040
     20          7           0        1.163717    2.224887   -0.214929
     21          6           0        2.402081    2.800271   -0.086333
     22          6           0        3.542851    1.894713   -0.456647
     23          6           0        3.444531    0.906817   -1.439397
     24          6           0        4.539895    0.104702   -1.737328
     25          6           0        5.747812    0.255177   -1.054662
     26          6           0        5.848289    1.273799   -0.103813
     27          6           0        4.763689    2.088960    0.190459
     28          6           0        6.915817   -0.684885   -1.315608
     29          7           0        6.980264   -1.917912   -0.549302
     30          6           0        6.017342   -2.965262   -0.867806
     31          6           0        4.749177   -2.933784    0.002516
     32          7           0        5.037388   -2.896174    1.433238
     33          6           0        5.483281   -4.166589    1.977123
     34          6           0        5.932699   -1.780101    1.727448
     35          6           0        7.219333   -1.801053    0.884729
     36          8           0        2.595172    3.939175    0.306486
     37          6           0       -4.093740    4.306017    0.671752
     38          1           0       -8.966638   -4.255733   -1.077515
     39          1           0       -6.566508   -3.653135   -1.380511
     40          1           0       -7.270264   -0.240651    1.127795
     41          1           0      -10.404179   -2.785726    0.330749
     42          1           0       -4.445447   -3.423638   -0.686910
     43          1           0       -2.145107   -2.465086   -0.846909
     44          1           0       -4.501888    2.006692    0.328740
     45          1           0       -1.754466    5.651729    0.708283
     46          1           0        0.544833    4.822215    0.355408
     47          1           0       -1.046052    0.871055   -0.244740
     48          1           0        1.151917    1.232989   -0.399687
     49          1           0        2.525131    0.782544   -2.006004
     50          1           0        4.454382   -0.653112   -2.512795
     51          1           0        6.791215    1.426529    0.416297
     52          1           0        4.843310    2.885711    0.922766
     53          1           0        6.917921   -0.962141   -2.377111
     54          1           0        7.851124   -0.141053   -1.132571
     55          1           0        5.753469   -2.891992   -1.929128
     56          1           0        6.518124   -3.935921   -0.734223
     57          1           0        4.127406   -3.812040   -0.210488
     58          1           0        4.158315   -2.042308   -0.238773
     59          1           0        6.432429   -4.554705    1.566978
     60          1           0        4.711412   -4.923165    1.797623
     61          1           0        5.607679   -4.065571    3.060670
     62          1           0        6.182076   -1.800046    2.795228
     63          1           0        5.381704   -0.851984    1.535197
     64          1           0        7.839335   -2.655046    1.195597
     65          1           0        7.810437   -0.897705    1.073134
     66          1           0       -4.579978    3.852303    1.545932
     67          1           0       -4.748555    4.145923   -0.195098
     68          1           0       -4.055305    5.383367    0.850732
 ---------------------------------------------------------------------

 The electronic state is 1-A.
 Alpha  occ. eigenvalues --  -19.23836 -14.49103 -14.48934 -14.45868 -14.45804
 Alpha  occ. eigenvalues --  -14.45506 -14.43973 -14.43415 -10.41652 -10.40645
 Alpha  occ. eigenvalues --  -10.37347 -10.36107 -10.34702 -10.34389 -10.34206
 Alpha  occ. eigenvalues --  -10.34098 -10.33405 -10.32868 -10.32823 -10.32041
 Alpha  occ. eigenvalues --  -10.31770 -10.31684 -10.31675 -10.31541 -10.31530
 Alpha  occ. eigenvalues --  -10.31430 -10.31086 -10.31041 -10.30950 -10.30886
 Alpha  occ. eigenvalues --  -10.30870 -10.30830 -10.30324 -10.30024 -10.29492
 Alpha  occ. eigenvalues --  -10.28982 -10.28255  -1.13999  -1.12112  -1.05378
 Alpha  occ. eigenvalues --   -1.04482  -1.04191  -1.03830  -1.00484  -0.99914
 Alpha  occ. eigenvalues --   -0.96781  -0.94847  -0.92393  -0.89396  -0.88367
 Alpha  occ. eigenvalues --   -0.86924  -0.86376  -0.85817  -0.85243  -0.83767
 Alpha  occ. eigenvalues --   -0.82265  -0.79763  -0.78189  -0.77516  -0.76441
 Alpha  occ. eigenvalues --   -0.73608  -0.73256  -0.73108  -0.72541  -0.71278
 Alpha  occ. eigenvalues --   -0.70659  -0.69529  -0.68359  -0.66305  -0.65184
 Alpha  occ. eigenvalues --   -0.64043  -0.63278  -0.62731  -0.61366  -0.60204
 Alpha  occ. eigenvalues --   -0.58491  -0.58319  -0.57252  -0.56993  -0.55833
 Alpha  occ. eigenvalues --   -0.55623  -0.55450  -0.55269  -0.54755  -0.54393
 Alpha  occ. eigenvalues --   -0.54210  -0.53699  -0.53243  -0.52998  -0.52382
 Alpha  occ. eigenvalues --   -0.51676  -0.51646  -0.51396  -0.50862  -0.50697
 Alpha  occ. eigenvalues --   -0.50445  -0.49925  -0.49788  -0.49515  -0.48774
 Alpha  occ. eigenvalues --   -0.47363  -0.47074  -0.46914  -0.46620  -0.46099
 Alpha  occ. eigenvalues --   -0.45608  -0.45509  -0.45154  -0.44494  -0.43966
 Alpha  occ. eigenvalues --   -0.43333  -0.43083  -0.42785  -0.41894  -0.41521
 Alpha  occ. eigenvalues --   -0.41304  -0.41189  -0.39933  -0.38174  -0.37066
 Alpha  occ. eigenvalues --   -0.35184  -0.34842  -0.34010  -0.33663  -0.33465
 Alpha  occ. eigenvalues --   -0.32914  -0.32452  -0.31163  -0.29303  -0.26950
 Alpha  occ. eigenvalues --   -0.25315
 Alpha virt. eigenvalues --    0.00191   0.02795   0.03626   0.04860   0.05697
 Alpha virt. eigenvalues --    0.07776   0.08204   0.10871   0.14329   0.15258
 Alpha virt. eigenvalues --    0.16231   0.16754   0.17029   0.17538   0.18746

 Mulliken atomic charges:
              1
     1  C   -0.195743
     2  C   -0.158538
     3  C    0.036610
     4  C    0.011619
     5  N   -0.421443
     6  C    0.025430
     7  C    0.286965
     8  C   -0.251861
     9  C    0.054328
    10  N   -0.496133
    11  C    0.725433
    12  N   -0.571879
    13  N   -0.811947
    14  C    0.302388
    15  C    0.115142
    16  C   -0.238758
    17  C   -0.192983
    18  C    0.357501
    19  C   -0.278813
    20  N   -0.765871
    21  C    0.597684
    22  C    0.017385
    23  C   -0.209338
    24  C   -0.219400
    25  C    0.158704
    26  C   -0.222627
    27  C   -0.175717
    28  C   -0.264166
    29  N   -0.380733
    30  C   -0.184682
    31  C   -0.180752
    32  N   -0.385176
    33  C   -0.350173
    34  C   -0.182797
    35  C   -0.186430
    36  O   -0.512541
    37  C   -0.612564
    38  H    0.181966
    39  H    0.181981
    40  H    0.198052
    41  H    0.181163
    42  H    0.180099
    43  H    0.184700
    44  H    0.370050
    45  H    0.160840
    46  H    0.216160
    47  H    0.204609
    48  H    0.358714
    49  H    0.174019
    50  H    0.164549
    51  H    0.167271
    52  H    0.201113
    53  H    0.170516
    54  H    0.171692
    55  H    0.151052
    56  H    0.160957
    57  H    0.151185
    58  H    0.163796
    59  H    0.135976
    60  H    0.166366
    61  H    0.168468
    62  H    0.154840
    63  H    0.169977
    64  H    0.161093
    65  H    0.154197
    66  H    0.181981
    67  H    0.182868
    68  H    0.191627
 Sum of Mulliken atomic charges =   0.00000

 Dipole moment (field-independent basis, Debye):
    X=             -0.3598    Y=             -5.3743    Z=             -2.0935  Tot=              5.7789
 Quadrupole moment (field-independent basis, Debye-Ang):
   XX=           -206.6495   YY=           -205.8807   ZZ=           -215.3879
   XY=              3.6413   XZ=             11.1632   YZ=              8.6272

 Normal termination of Gaussian 09 at Thu Feb 27 17:25:22 2020.
