 Gaussian 09, Revision A.02,
 Gaussian 09:  EM64L-G09RevA.02 11-Jun-2009

 --------------------------------------------------
 #P opt=(,maxcycle=400) wB97XD/6-31G* MaxDisk=100GB
 --------------------------------------------------

 --------------------------------------------------------------
 MOLECULE0 Rotatable Bond Optimization on node37.bme.utexas.edu
 --------------------------------------------------------------
 Symbolic Z-matrix:
 Charge =  0 Multiplicity = 1

 SCF Done:  E(RwB97XD) =  -1581.50592142     A.U. after   16 cycles
 SCF Done:  E(RwB97XD) =  -1581.56933560     A.U. after   13 cycles
 SCF Done:  E(RwB97XD) =  -1581.67101677     A.U. after   14 cycles
 SCF Done:  E(RwB97XD) =  -1581.71544266     A.U. after   14 cycles
 SCF Done:  E(RwB97XD) =  -1581.73543235     A.U. after   17 cycles
 SCF Done:  E(RwB97XD) =  -1581.73514029     A.U. after   17 cycles
 SCF Done:  E(RwB97XD) =  -1581.74800603     A.U. after   14 cycles
 SCF Done:  E(RwB97XD) =  -1581.75500848     A.U. after   14 cycles
 SCF Done:  E(RwB97XD) =  -1581.75892420     A.U. after   14 cycles
 SCF Done:  E(RwB97XD) =  -1581.76079891     A.U. after   17 cycles
 SCF Done:  E(RwB97XD) =  -1581.76315955     A.U. after   12 cycles
 SCF Done:  E(RwB97XD) =  -1581.76318731     A.U. after   12 cycles
 SCF Done:  E(RwB97XD) =  -1581.76320218     A.U. after   12 cycles
 SCF Done:  E(RwB97XD) =  -1581.76321004     A.U. after   11 cycles
 SCF Done:  E(RwB97XD) =  -1581.76321095     A.U. after   10 cycles
 SCF Done:  E(RwB97XD) =  -1581.76321546     A.U. after   11 cycles
 SCF Done:  E(RwB97XD) =  -1581.76321487     A.U. after   10 cycles
 SCF Done:  E(RwB97XD) =  -1581.76321613     A.U. after    7 cycles
 SCF Done:  E(RwB97XD) =  -1581.76321623     A.U. after    7 cycles
 SCF Done:  E(RwB97XD) =  -1581.76321623     A.U. after    7 cycles
 Optimization completed.
    -- Stationary point found.

                         Standard orientation:
 ---------------------------------------------------------------------
 Center     Atomic      Atomic             Coordinates (Angstroms)
 Number     Number       Type             X           Y           Z
 ---------------------------------------------------------------------
      1          6           0       -0.473542    4.274961   -0.770949
      2          6           0        0.871039    4.192341   -0.429847
      3          6           0        1.547561    2.990448   -0.631318
      4          6           0        0.821156    1.926457   -1.182511
      5          7           0       -0.467853    1.990142   -1.511433
      6          6           0       -1.096858    3.150078   -1.300065
      7          6           0        2.969476    2.789324   -0.253761
      8          6           0        3.900459    3.819298   -0.154320
      9          6           0        5.186416    3.446690    0.235485
     10          7           0        5.545806    2.197332    0.496564
     11          6           0        4.572404    1.274900    0.354214
     12          7           0        3.312379    1.523618   -0.002326
     13          7           0        4.961197   -0.011131    0.612510
     14          6           0        4.245331   -1.217183    0.494322
     15          6           0        4.968955   -2.426968    0.479822
     16          6           0        4.248218   -3.609772    0.338843
     17          6           0        2.862461   -3.650919    0.195966
     18          6           0        2.171345   -2.443278    0.217272
     19          6           0        2.859793   -1.243339    0.393344
     20          7           0        0.784820   -2.305171    0.039513
     21          6           0       -0.155309   -3.232244   -0.330873
     22          6           0       -1.474707   -2.600689   -0.675213
     23          6           0       -1.549817   -1.357643   -1.310620
     24          6           0       -2.782144   -0.778361   -1.574437
     25          6           0       -3.965549   -1.409678   -1.191659
     26          6           0       -3.883871   -2.677209   -0.608324
     27          6           0       -2.653768   -3.274110   -0.358006
     28          6           0       -5.302580   -0.703959   -1.348832
     29          7           0       -5.692889    0.226023   -0.299993
     30          6           0       -5.026082    1.522756   -0.247603
     31          6           0       -3.816161    1.577702    0.702938
     32          7           0       -4.113475    1.068538    2.038891
     33          6           0       -4.902338    1.977427    2.851441
     34          6           0       -4.679545   -0.274883    1.939644
     35          6           0       -5.914602   -0.340475    1.025828
     36          8           0        0.036561   -4.436112   -0.364588
     37          6           0        6.471724   -2.442910    0.599620
     38          1           0       -1.033038    5.191528   -0.617922
     39          1           0        1.376083    5.045373    0.014152
     40          1           0        1.325345    0.981221   -1.366847
     41          1           0       -2.151829    3.176886   -1.564373
     42          1           0        3.661455    4.851119   -0.380048
     43          1           0        5.967970    4.196837    0.338441
     44          1           0        5.942401   -0.077253    0.838505
     45          1           0        4.796342   -4.548519    0.325971
     46          1           0        2.333413   -4.584961    0.065429
     47          1           0        2.314852   -0.311893    0.418314
     48          1           0        0.446372   -1.358703    0.130853
     49          1           0       -0.653384   -0.832479   -1.627297
     50          1           0       -2.809991    0.191098   -2.065341
     51          1           0       -4.798607   -3.197183   -0.332233
     52          1           0       -2.590108   -4.256721    0.098805
     53          1           0       -5.308138   -0.148486   -2.294483
     54          1           0       -6.094884   -1.459798   -1.423584
     55          1           0       -4.724392    1.804406   -1.263582
     56          1           0       -5.767531    2.267786    0.078552
     57          1           0       -3.459019    2.611668    0.792702
     58          1           0       -2.991218    0.982699    0.295660
     59          1           0       -5.912409    2.205088    2.467467
     60          1           0       -4.364653    2.926792    2.951860
     61          1           0       -5.018041    1.550254    3.853533
     62          1           0       -4.938121   -0.623652    2.946853
     63          1           0       -3.897614   -0.938276    1.552082
     64          1           0       -6.743339    0.207810    1.497911
     65          1           0       -6.248274   -1.378285    0.914701
     66          1           0        6.817167   -2.031195    1.557821
     67          1           0        6.952161   -1.866720   -0.201818
     68          1           0        6.851859   -3.465603    0.536137
 ---------------------------------------------------------------------

 The electronic state is 1-A.
 Alpha  occ. eigenvalues --  -19.23411 -14.49283 -14.48320 -14.46751 -14.46096
 Alpha  occ. eigenvalues --  -14.45764 -14.43616 -14.43135 -10.41778 -10.40081
 Alpha  occ. eigenvalues --  -10.37615 -10.36338 -10.35325 -10.35084 -10.34623
 Alpha  occ. eigenvalues --  -10.34135 -10.34016 -10.33623 -10.32863 -10.32367
 Alpha  occ. eigenvalues --  -10.31861 -10.31493 -10.31178 -10.30936 -10.30708
 Alpha  occ. eigenvalues --  -10.30688 -10.30676 -10.30586 -10.30533 -10.30402
 Alpha  occ. eigenvalues --  -10.30377 -10.30220 -10.30020 -10.29974 -10.29575
 Alpha  occ. eigenvalues --  -10.28739 -10.28405  -1.13443  -1.12296  -1.06322
 Alpha  occ. eigenvalues --   -1.04565  -1.03828  -1.03634  -1.00716  -0.99557
 Alpha  occ. eigenvalues --   -0.96085  -0.94671  -0.93098  -0.89778  -0.88124
 Alpha  occ. eigenvalues --   -0.87389  -0.86228  -0.85399  -0.84541  -0.83783
 Alpha  occ. eigenvalues --   -0.81888  -0.79581  -0.78270  -0.77798  -0.76320
 Alpha  occ. eigenvalues --   -0.73881  -0.73301  -0.73025  -0.72621  -0.70870
 Alpha  occ. eigenvalues --   -0.70314  -0.69614  -0.68039  -0.66413  -0.65150
 Alpha  occ. eigenvalues --   -0.63656  -0.63408  -0.62228  -0.61762  -0.60211
 Alpha  occ. eigenvalues --   -0.58848  -0.58045  -0.57570  -0.56611  -0.56101
 Alpha  occ. eigenvalues --   -0.55817  -0.55236  -0.55134  -0.54964  -0.54255
 Alpha  occ. eigenvalues --   -0.53867  -0.53239  -0.53154  -0.52612  -0.52174
 Alpha  occ. eigenvalues --   -0.51912  -0.51509  -0.51371  -0.50999  -0.50575
 Alpha  occ. eigenvalues --   -0.50365  -0.50116  -0.49974  -0.49497  -0.48335
 Alpha  occ. eigenvalues --   -0.47217  -0.46906  -0.46619  -0.46319  -0.46211
 Alpha  occ. eigenvalues --   -0.45762  -0.45236  -0.44797  -0.44045  -0.43931
 Alpha  occ. eigenvalues --   -0.43328  -0.43017  -0.42141  -0.41766  -0.41439
 Alpha  occ. eigenvalues --   -0.40964  -0.40776  -0.39912  -0.38187  -0.37592
 Alpha  occ. eigenvalues --   -0.35821  -0.35293  -0.34001  -0.33446  -0.33374
 Alpha  occ. eigenvalues --   -0.32818  -0.31904  -0.30772  -0.29115  -0.27079
 Alpha  occ. eigenvalues --   -0.24996
 Alpha virt. eigenvalues --   -0.00292   0.02872   0.03586   0.04480   0.06434
 Alpha virt. eigenvalues --    0.07258   0.08204   0.10372   0.13887   0.14815
 Alpha virt. eigenvalues --    0.15728   0.16386   0.17252   0.17441   0.18251

 Mulliken atomic charges:
              1
     1  C   -0.197837
     2  C   -0.154404
     3  C    0.035507
     4  C    0.009571
     5  N   -0.437521
     6  C    0.035729
     7  C    0.295161
     8  C   -0.254772
     9  C    0.049021
    10  N   -0.493039
    11  C    0.714397
    12  N   -0.568413
    13  N   -0.802091
    14  C    0.291488
    15  C    0.119854
    16  C   -0.240380
    17  C   -0.191296
    18  C    0.358149
    19  C   -0.269699
    20  N   -0.757966
    21  C    0.585738
    22  C    0.015195
    23  C   -0.205346
    24  C   -0.217911
    25  C    0.155971
    26  C   -0.223080
    27  C   -0.178379
    28  C   -0.263560
    29  N   -0.382216
    30  C   -0.183896
    31  C   -0.181775
    32  N   -0.385719
    33  C   -0.349274
    34  C   -0.182642
    35  C   -0.186520
    36  O   -0.513282
    37  C   -0.607372
    38  H    0.186141
    39  H    0.186727
    40  H    0.198130
    41  H    0.179048
    42  H    0.180748
    43  H    0.189491
    44  H    0.369214
    45  H    0.160819
    46  H    0.213080
    47  H    0.199379
    48  H    0.361557
    49  H    0.185459
    50  H    0.172056
    51  H    0.163616
    52  H    0.195609
    53  H    0.170277
    54  H    0.168923
    55  H    0.148151
    56  H    0.158345
    57  H    0.141654
    58  H    0.174887
    59  H    0.135271
    60  H    0.164119
    61  H    0.167874
    62  H    0.153487
    63  H    0.172930
    64  H    0.159422
    65  H    0.154992
    66  H    0.178040
    67  H    0.182743
    68  H    0.190420
 Sum of Mulliken atomic charges =   0.00000

 Dipole moment (field-independent basis, Debye):
    X=              0.5806    Y=              6.5719    Z=              0.4347  Tot=              6.6118
 Quadrupole moment (field-independent basis, Debye-Ang):
   XX=           -193.2968   YY=           -202.5023   ZZ=           -220.4861
   XY=              3.1065   XZ=             -1.2787   YZ=             -5.2175

 Normal termination of Gaussian 09 at Wed Mar  4 08:25:08 2020.
