                               Psi4 1.3.2 release

  ==> Input File <==

--------------------------------------------------------------------------
molecule {
0 1
 C   -1.585710    5.082299   -0.992361
 C   -2.878335    4.541829   -0.989451
 C   -3.075084    3.189971   -0.644623
 C   -1.909210    2.466936   -0.291474
 N   -0.667695    2.968695   -0.281386
 C   -0.516575    4.254210   -0.633828
 C   -4.425672    2.519170   -0.621641
 C   -5.656197    3.178972   -0.776929
 C   -6.797490    2.374186   -0.683299
 N   -6.773034    1.059952   -0.474272
 C   -5.549270    0.506048   -0.355503
 N   -4.404238    1.187435   -0.423727
 N   -5.541762   -0.862763   -0.152925
 C   -4.500475   -1.817062    0.131454
 C   -4.844037   -3.079759    0.703923
 C   -3.791739   -3.963897    0.994398
 C   -2.443534   -3.681089    0.748072
 C   -2.120884   -2.456363    0.154107
 C   -3.152081   -1.549761   -0.140168
 N   -0.798885   -2.017817   -0.172713
 C    0.435242   -2.521221    0.168598
 C    1.596214   -1.607901   -0.158516
 C    2.533629   -1.994224   -1.127605
 C    3.571840   -1.129512   -1.482804
 C    3.709455    0.139198   -0.885876
 C    2.776887    0.495572    0.107544
 C    1.742158   -0.365814    0.478719
 C    4.854868    1.078736   -1.267922
 N    6.114140    1.050847   -0.505530
 C    6.970663   -0.154559   -0.594061
 C    6.752808   -1.194605    0.535630
 N    6.837112   -0.626057    1.902403
 C    8.184666   -0.442933    2.454452
 C    5.920993    0.536197    1.988998
 C    6.134292    1.592126    0.873239
 O    0.606623   -3.615094    0.679775
 C   -6.271148   -3.488366    1.029382
 H   -1.409473    6.118257   -1.265963
 H   -3.708310    5.182395   -1.277433
 H   -1.981540    1.430599    0.023734
 H    0.506361    4.627027   -0.618824
 H   -5.765086    4.245157   -0.932612
 H   -7.801495    2.787988   -0.772790
 H   -6.492974   -1.192149   -0.086863
 H   -4.019143   -4.929050    1.445563
 H   -1.660361   -4.385373    1.000100
 H   -2.908591   -0.607682   -0.604066
 H   -0.762213   -1.139217   -0.671729
 H    2.429587   -2.966660   -1.602005
 H    4.287575   -1.453172   -2.238004
 H    2.849431    1.466340    0.597341
 H    1.019284   -0.068029    1.234227
 H    5.120438    0.883204   -2.316876
 H    4.480398    2.111088   -1.221111
 H    6.854070   -0.664835   -1.657924
 H    8.371556    0.306434   -0.507094
 H    7.571601   -2.131916    0.431532
 H    5.433683   -1.766716    0.405007
 H    8.743818    0.307882    1.884826
 H    8.736432   -1.389648    2.427267
 H    8.123840   -0.120310    3.500143
 H    6.057343    1.098006    3.170459
 H    4.659156    0.050023    1.921597
 H    7.469751    2.185376    1.079631
 H    5.374059    2.462364    0.978229
 H   -6.920052   -3.505105    0.142083
 H   -6.723777   -2.798692    1.747510
 H   -6.333798   -4.485671    1.472542
}
memory 20GB
set_num_threads(6)
psi4_io.set_default_path("/scratch/bdw2292")
set freeze_core True
E, wfn = energy('mp2/6-311+G*',return_wfn=True)
oeprop(wfn,"WIBERG_LOWDIN_INDICES")
clean()
--------------------------------------------------------------------------

    Molecular point group: c1

    Geometry (in Angstrom), charge = 0, multiplicity = 1:

       Center              X                  Y                   Z               Mass
    ------------   -----------------  -----------------  -----------------  -----------------
         C           -1.436352598629     5.056752686004    -0.995962820418    12.000000000000
         C           -2.728977598629     4.516282686004    -0.993052820418    12.000000000000
         C           -2.925726598629     3.164424686004    -0.648224820418    12.000000000000
         C           -1.759852598629     2.441389686004    -0.295075820418    12.000000000000
         N           -0.518337598629     2.943148686004    -0.284987820418    14.003074004430
         C           -0.367217598629     4.228663686004    -0.637429820418    12.000000000000
         C           -4.276314598629     2.493623686004    -0.625242820418    12.000000000000
         C           -5.506839598629     3.153425686004    -0.780530820418    12.000000000000
         C           -6.648132598629     2.348639686004    -0.686900820418    12.000000000000
         N           -6.623676598629     1.034405686004    -0.477873820418    14.003074004430
         C           -5.399912598629     0.480501686004    -0.359104820418    12.000000000000
         N           -4.254880598629     1.161888686004    -0.427328820418    14.003074004430
         N           -5.392404598629    -0.888309313996    -0.156526820418    14.003074004430
         C           -4.351117598629    -1.842608313996     0.127852179582    12.000000000000
         C           -4.694679598629    -3.105305313996     0.700321179582    12.000000000000
         C           -3.642381598629    -3.989443313996     0.990796179582    12.000000000000
         C           -2.294176598629    -3.706635313996     0.744470179582    12.000000000000
         C           -1.971526598629    -2.481909313996     0.150505179582    12.000000000000
         C           -3.002723598629    -1.575307313996    -0.143769820418    12.000000000000
         N           -0.649527598629    -2.043363313996    -0.176314820418    14.003074004430
         C            0.584599401371    -2.546767313996     0.164996179582    12.000000000000
         C            1.745571401371    -1.633447313996    -0.162117820418    12.000000000000
         C            2.682986401371    -2.019770313996    -1.131206820418    12.000000000000
         C            3.721197401371    -1.155058313996    -1.486405820418    12.000000000000
         C            3.858812401371     0.113651686004    -0.889477820418    12.000000000000
         C            2.926244401371     0.470025686004     0.103942179582    12.000000000000
         C            1.891515401371    -0.391360313996     0.475117179582    12.000000000000
         C            5.004225401371     1.053189686004    -1.271523820418    12.000000000000
         N            6.263497401371     1.025300686004    -0.509131820418    14.003074004430
         C            7.120020401371    -0.180105313996    -0.597662820418    12.000000000000
         C            6.902165401371    -1.220151313996     0.532028179582    12.000000000000
         N            6.986469401371    -0.651603313996     1.898801179582    14.003074004430
         C            8.334023401371    -0.468479313996     2.450850179582    12.000000000000
         C            6.070350401371     0.510650686004     1.985396179582    12.000000000000
         C            6.283649401371     1.566579686004     0.869637179582    12.000000000000
         O            0.755980401371    -3.640640313996     0.676173179582    15.994914619570
         C           -6.121790598629    -3.513912313996     1.025780179582    12.000000000000
         H           -1.260115598629     6.092710686004    -1.269564820418     1.007825032230
         H           -3.558952598629     5.156848686004    -1.281034820418     1.007825032230
         H           -1.832182598629     1.405052686004     0.020132179582     1.007825032230
         H            0.655718401371     4.601480686004    -0.622425820418     1.007825032230
         H           -5.615728598629     4.219610686004    -0.936213820418     1.007825032230
         H           -7.652137598629     2.762441686004    -0.776391820418     1.007825032230
         H           -6.343616598629    -1.217695313996    -0.090464820418     1.007825032230
         H           -3.869785598629    -4.954596313996     1.441961179582     1.007825032230
         H           -1.511003598629    -4.410919313996     0.996498179582     1.007825032230
         H           -2.759233598629    -0.633228313996    -0.607667820418     1.007825032230
         H           -0.612855598629    -1.164763313996    -0.675330820418     1.007825032230
         H            2.578944401371    -2.992206313996    -1.605606820418     1.007825032230
         H            4.436932401371    -1.478718313996    -2.241605820418     1.007825032230
         H            2.998788401371     1.440793686004     0.593739179582     1.007825032230
         H            1.168641401371    -0.093575313996     1.230625179582     1.007825032230
         H            5.269795401371     0.857657686004    -2.320477820418     1.007825032230
         H            4.629755401371     2.085541686004    -1.224712820418     1.007825032230
         H            7.003427401371    -0.690381313996    -1.661525820418     1.007825032230
         H            8.520913401371     0.280887686004    -0.510695820418     1.007825032230
         H            7.720958401371    -2.157462313996     0.427930179582     1.007825032230
         H            5.583040401371    -1.792262313996     0.401405179582     1.007825032230
         H            8.893175401371     0.282335686004     1.881224179582     1.007825032230
         H            8.885789401371    -1.415194313996     2.423665179582     1.007825032230
         H            8.273197401371    -0.145856313996     3.496541179582     1.007825032230
         H            6.206700401371     1.072459686004     3.166857179582     1.007825032230
         H            4.808513401371     0.024476686004     1.917995179582     1.007825032230
         H            7.619108401371     2.159829686004     1.076029179582     1.007825032230
         H            5.523416401371     2.436817686004     0.974627179582     1.007825032230
         H           -6.770694598629    -3.530651313996     0.138481179582     1.007825032230
         H           -6.574419598629    -2.824238313996     1.743908179582     1.007825032230
         H           -6.184440598629    -4.511217313996     1.468940179582     1.007825032230

  Charge       = 0
  Multiplicity = 1
  Basis Set: 6-311+G*
    Blend: 6-311+G*
  Basis Set: (6-311+G* AUX)
    Blend: HEAVY-AUG-CC-PVTZ-JKFIT

    Orbital Energies [Eh]
    ---------------------

    Doubly Occupied:

       1A    -20.526138     2A    -15.604007     3A    -15.603921
       4A    -15.583578     5A    -15.572868     6A    -15.568467
       7A    -15.567324     8A    -15.552609     9A    -11.374306
      10A    -11.365320    11A    -11.333967    12A    -11.313586
      13A    -11.309768    14A    -11.307099    15A    -11.304568
      16A    -11.303461    17A    -11.302327    18A    -11.299382
      19A    -11.298236    20A    -11.293271    21A    -11.288242
      22A    -11.278489    23A    -11.276468    24A    -11.264337
      25A    -11.257564    26A    -11.253910    27A    -11.252268
      28A    -11.252220    29A    -11.251399    30A    -11.247715
      31A    -11.247254    32A    -11.246671    33A    -11.243962
      34A    -11.240939    35A    -11.234756    36A    -11.232779
      37A    -11.226145    38A     -1.388903    39A     -1.345037
      40A     -1.276139    41A     -1.253683    42A     -1.243092
      43A     -1.242842    44A     -1.209107    45A     -1.197434
      46A     -1.162508    47A     -1.140704    48A     -1.114856
      49A     -1.074935    50A     -1.060480    51A     -1.047283
      52A     -1.038085    53A     -1.024672    54A     -1.008691
      55A     -0.990438    56A     -0.975709    57A     -0.947367
      58A     -0.926426    59A     -0.925419    60A     -0.900807
      61A     -0.871643    62A     -0.866165    63A     -0.857093
      64A     -0.842315    65A     -0.834996    66A     -0.825744
      67A     -0.825045    68A     -0.805045    69A     -0.779739
      70A     -0.754459    71A     -0.737949    72A     -0.731552
      73A     -0.721767    74A     -0.700773    75A     -0.694072
      76A     -0.682842    77A     -0.673497    78A     -0.666029
      79A     -0.659498    80A     -0.656854    81A     -0.653301
      82A     -0.643394    83A     -0.640571    84A     -0.629614
      85A     -0.623200    86A     -0.619536    87A     -0.612926
      88A     -0.607179    89A     -0.603297    90A     -0.602857
      91A     -0.599220    92A     -0.596084    93A     -0.592898
      94A     -0.586336    95A     -0.584367    96A     -0.582021
      97A     -0.580094    98A     -0.570544    99A     -0.565350
     100A     -0.559551   101A     -0.549727   102A     -0.543539
     103A     -0.530394   104A     -0.526288   105A     -0.524402
     106A     -0.520704   107A     -0.514467   108A     -0.510001
     109A     -0.506502   110A     -0.506052   111A     -0.501697
     112A     -0.495455   113A     -0.485720   114A     -0.481417
     115A     -0.457432   116A     -0.451007   117A     -0.439692
     118A     -0.434901   119A     -0.427609   120A     -0.426204
     121A     -0.413639   122A     -0.405413   123A     -0.398480
     124A     -0.379594   125A     -0.373005   126A     -0.344962
     127A     -0.343527   128A     -0.342214   129A     -0.315365
     130A     -0.310805   131A     -0.291015

  @DF-RHF Final Energy: -1572.30748092407407

   => Energetics <=

    Nuclear Repulsion Energy =           3680.8652857449933435
    One-Electron Energy =               -9460.0163791052618762
    Two-Electron Energy =                4206.8436124361942348
    Total Energy =                      -1572.3074809240742979

  Dipole Moment: [D]
     X:    -3.1520      Y:     6.3057      Z:    -2.3609     Total:     7.4344

  Basis Set: (6-311+G* AUX)
    Blend: HEAVY-AUG-CC-PVTZ-RI
	 Reference Energy          =   -1572.3074809240740706 [Eh]
	 Singles Energy            =      -0.0000000000000000 [Eh]
	 Same-Spin Energy          =      -1.4486883703540727 [Eh]
	 Opposite-Spin Energy      =      -3.8931270881889350 [Eh]
	 Correlation Energy        =      -5.3418154585430075 [Eh]
	 Total Energy              =   -1577.6492963826169671 [Eh]

	 ================> DF-SCS-MP2 Energies <==================
	-----------------------------------------------------------
	 SCS Same-Spin Scale       =       0.3333333333333333 [-]
	 SCS Opposite-Spin Scale   =       1.2000000000000000 [-]
	 SCS Same-Spin Energy      =      -0.4828961234513576 [Eh]
	 SCS Opposite-Spin Energy  =      -4.6717525058267215 [Eh]
	 SCS Correlation Energy    =      -5.1546486292780793 [Eh]
	 SCS Total Energy          =   -1577.4621295533520424 [Eh]
	-----------------------------------------------------------

*** Psi4 exiting successfully. Buy a developer a beer!
