                               Psi4 1.3.2 release

  ==> Input File <==

--------------------------------------------------------------------------
molecule {
0 1
 C    1.291995    4.988277   -0.563021
 C    2.609149    4.528559   -0.428567
 C    2.854910    3.165240   -0.174178
 C    1.706455    2.347423   -0.037114
 N    0.440571    2.766990   -0.159623
 C    0.246337    4.068181   -0.425172
 C    4.234728    2.571691   -0.035550
 C    5.431597    3.303291    0.031616
 C    6.598921    2.548462    0.199636
 N    6.630477    1.219462    0.275832
 C    5.439004    0.596131    0.174976
 N    4.273089    1.228355    0.029838
 N    5.482435   -0.787157    0.245221
 C    4.471737   -1.818705    0.214750
 C    4.831050   -3.170705    0.502603
 C    3.803570   -4.129747    0.483536
 C    2.463856   -3.837612    0.200068
 C    2.125556   -2.514122   -0.099243
 C    3.135316   -1.539690   -0.097029
 N    0.816807   -2.033425   -0.428041
 C   -0.426545   -2.614130   -0.330591
 C   -1.636674   -1.759227   -0.668166
 C   -1.662578   -0.355399   -0.589361
 C   -2.798248    0.356956   -0.980992
 C   -3.959224   -0.298199   -1.432717
 C   -3.931125   -1.705067   -1.480474
 C   -2.795267   -2.425343   -1.103422
 C   -5.211059    0.487549   -1.827595
 N   -6.230456    0.796642   -0.810867
 C   -5.893146    1.746231    0.274296
 C   -5.383449    1.085199    1.581503
 N   -6.276698    0.025938    2.109545
 C   -7.428659    0.474604    2.900658
 C   -6.554013   -0.947949    1.026071
 C   -7.073063   -0.301480   -0.284773
 O   -0.574420   -3.777434    0.012061
 C    6.247653   -3.601467    0.843390
 H    1.080265    6.032965   -0.771490
 H    3.422689    5.239836   -0.548157
 H    1.807044    1.296255    0.211532
 H   -0.794082    4.375533   -0.520047
 H    5.494006    4.383735   -0.010607
 H    7.578300    3.018394    0.283716
 H    6.436617   -1.082748    0.385749
 H    4.045073   -5.168476    0.705484
 H    1.698166   -4.603307    0.209486
 H    2.878369   -0.527269   -0.353420
 H    0.808310   -1.085417   -0.775355
 H   -0.794637    0.187632   -0.222498
 H   -2.776395    1.444388   -0.913216
 H   -4.812780   -2.252877   -1.811622
 H   -2.789191   -3.511814   -1.147362
 H   -4.891000    1.448581   -2.254647
 H   -5.722031   -0.062561   -2.630547
 H   -5.126981    2.553858   -0.111153
 H   -7.146375    2.483928    0.608817
 H   -5.209384    1.957327    2.473045
 H   -4.136258    0.484286    1.344451
 H   -8.130007    1.046235    2.282524
 H   -7.093892    1.106459    3.731363
 H   -7.954169   -0.387698    3.326740
 H   -7.368911   -1.802541    1.442878
 H   -5.358973   -1.615607    0.770440
 H   -8.405518    0.276340    0.001892
 H   -7.244549   -1.146662   -1.138321
 H    6.661108   -3.061407    1.707107
 H    6.923427   -3.428292    0.001193
 H    6.317473   -4.664888    1.086648
}
memory 20GB
set_num_threads(6)
psi4_io.set_default_path("/scratch/bdw2292")
set freeze_core True
E, wfn = energy('mp2/6-311++G**',return_wfn=True)
oeprop(wfn,"WIBERG_LOWDIN_INDICES")
clean()
--------------------------------------------------------------------------

    Molecular point group: c1

    Geometry (in Angstrom), charge = 0, multiplicity = 1:

       Center              X                  Y                   Z               Mass
    ------------   -----------------  -----------------  -----------------  -----------------
         C            1.181143436993     4.983066763122    -0.562589930689    12.000000000000
         C            2.498297436993     4.523348763122    -0.428135930689    12.000000000000
         C            2.744058436993     3.160029763122    -0.173746930689    12.000000000000
         C            1.595603436993     2.342212763122    -0.036682930689    12.000000000000
         N            0.329719436993     2.761779763122    -0.159191930689    14.003074004430
         C            0.135485436993     4.062970763122    -0.424740930689    12.000000000000
         C            4.123876436993     2.566480763122    -0.035118930689    12.000000000000
         C            5.320745436993     3.298080763122     0.032047069311    12.000000000000
         C            6.488069436993     2.543251763122     0.200067069311    12.000000000000
         N            6.519625436993     1.214251763122     0.276263069311    14.003074004430
         C            5.328152436993     0.590920763122     0.175407069311    12.000000000000
         N            4.162237436993     1.223144763122     0.030269069311    14.003074004430
         N            5.371583436993    -0.792367236878     0.245652069311    14.003074004430
         C            4.360885436993    -1.823915236878     0.215181069311    12.000000000000
         C            4.720198436993    -3.175915236878     0.503034069311    12.000000000000
         C            3.692718436993    -4.134957236878     0.483967069311    12.000000000000
         C            2.353004436993    -3.842822236878     0.200499069311    12.000000000000
         C            2.014704436993    -2.519332236878    -0.098811930689    12.000000000000
         C            3.024464436993    -1.544900236878    -0.096597930689    12.000000000000
         N            0.705955436993    -2.038635236878    -0.427609930689    14.003074004430
         C           -0.537396563007    -2.619340236878    -0.330159930689    12.000000000000
         C           -1.747525563007    -1.764437236878    -0.667734930689    12.000000000000
         C           -1.773429563007    -0.360609236878    -0.588929930689    12.000000000000
         C           -2.909099563007     0.351745763122    -0.980560930689    12.000000000000
         C           -4.070075563007    -0.303409236878    -1.432285930689    12.000000000000
         C           -4.041976563007    -1.710277236878    -1.480042930689    12.000000000000
         C           -2.906118563007    -2.430553236878    -1.102990930689    12.000000000000
         C           -5.321910563007     0.482338763122    -1.827163930689    12.000000000000
         N           -6.341307563007     0.791431763122    -0.810435930689    14.003074004430
         C           -6.003997563007     1.741020763122     0.274727069311    12.000000000000
         C           -5.494300563007     1.079988763122     1.581934069311    12.000000000000
         N           -6.387549563007     0.020727763122     2.109976069311    14.003074004430
         C           -7.539510563007     0.469393763122     2.901089069311    12.000000000000
         C           -6.664864563007    -0.953159236878     1.026502069311    12.000000000000
         C           -7.183914563007    -0.306690236878    -0.284341930689    12.000000000000
         O           -0.685271563007    -3.782644236878     0.012492069311    15.994914619570
         C            6.136801436993    -3.606677236878     0.843821069311    12.000000000000
         H            0.969413436993     6.027754763122    -0.771058930689     1.007825032230
         H            3.311837436993     5.234625763122    -0.547725930689     1.007825032230
         H            1.696192436993     1.291044763122     0.211963069311     1.007825032230
         H           -0.904933563007     4.370322763122    -0.519615930689     1.007825032230
         H            5.383154436993     4.378524763122    -0.010175930689     1.007825032230
         H            7.467448436993     3.013183763122     0.284147069311     1.007825032230
         H            6.325765436993    -1.087958236878     0.386180069311     1.007825032230
         H            3.934221436993    -5.173686236878     0.705915069311     1.007825032230
         H            1.587314436993    -4.608517236878     0.209917069311     1.007825032230
         H            2.767517436993    -0.532479236878    -0.352988930689     1.007825032230
         H            0.697458436993    -1.090627236878    -0.774923930689     1.007825032230
         H           -0.905488563007     0.182421763122    -0.222066930689     1.007825032230
         H           -2.887246563007     1.439177763122    -0.912784930689     1.007825032230
         H           -4.923631563007    -2.258087236878    -1.811190930689     1.007825032230
         H           -2.900042563007    -3.517024236878    -1.146930930689     1.007825032230
         H           -5.001851563007     1.443370763122    -2.254215930689     1.007825032230
         H           -5.832882563007    -0.067771236878    -2.630115930689     1.007825032230
         H           -5.237832563007     2.548647763122    -0.110721930689     1.007825032230
         H           -7.257226563007     2.478717763122     0.609248069311     1.007825032230
         H           -5.320235563007     1.952116763122     2.473476069311     1.007825032230
         H           -4.247109563007     0.479075763122     1.344882069311     1.007825032230
         H           -8.240858563007     1.041024763122     2.282955069311     1.007825032230
         H           -7.204743563007     1.101248763122     3.731794069311     1.007825032230
         H           -8.065020563007    -0.392908236878     3.327171069311     1.007825032230
         H           -7.479762563007    -1.807751236878     1.443309069311     1.007825032230
         H           -5.469824563007    -1.620817236878     0.770871069311     1.007825032230
         H           -8.516369563007     0.271129763122     0.002323069311     1.007825032230
         H           -7.355400563007    -1.151872236878    -1.137889930689     1.007825032230
         H            6.550256436993    -3.066617236878     1.707538069311     1.007825032230
         H            6.812575436993    -3.433502236878     0.001624069311     1.007825032230
         H            6.206621436993    -4.670098236878     1.087079069311     1.007825032230

  Charge       = 0
  Multiplicity = 1
  Basis Set: 6-311++G**
    Blend: 6-311++G**
  Basis Set: (6-311++G** AUX)
    Blend: AUG-CC-PVTZ-JKFIT

    Orbital Energies [Eh]
    ---------------------

    Doubly Occupied:

       1A    -20.519182     2A    -15.604894     3A    -15.601028
       4A    -15.588357     5A    -15.574367     6A    -15.569467
       7A    -15.567401     8A    -15.551650     9A    -11.375534
      10A    -11.363830    11A    -11.335402    12A    -11.314541
      13A    -11.311085    14A    -11.309614    15A    -11.302640
      16A    -11.302274    17A    -11.301885    18A    -11.301453
      19A    -11.299346    20A    -11.292169    21A    -11.290684
      22A    -11.281725    23A    -11.276416    24A    -11.267142
      25A    -11.256678    26A    -11.255747    27A    -11.253462
      28A    -11.253183    29A    -11.247951    30A    -11.247290
      31A    -11.244659    32A    -11.244277    33A    -11.243694
      34A    -11.239678    35A    -11.233894    36A    -11.229772
      37A    -11.224599    38A     -1.385002    39A     -1.345546
      40A     -1.279817    41A     -1.250243    42A     -1.242433
      43A     -1.241233    44A     -1.210234    45A     -1.196802
      46A     -1.160218    47A     -1.139630    48A     -1.117139
      49A     -1.076148    50A     -1.058430    51A     -1.049228
      52A     -1.037351    53A     -1.022189    54A     -1.007889
      55A     -0.989053    56A     -0.974495    57A     -0.946204
      58A     -0.927571    59A     -0.925964    60A     -0.901506
      61A     -0.873821    62A     -0.864451    63A     -0.858948
      64A     -0.840831    65A     -0.833641    66A     -0.824689
      67A     -0.824004    68A     -0.803957    69A     -0.777810
      70A     -0.755068    71A     -0.739690    72A     -0.730838
      73A     -0.722812    74A     -0.699858    75A     -0.693101
      76A     -0.683522    77A     -0.671977    78A     -0.667007
      79A     -0.658611    80A     -0.654391    81A     -0.651954
      82A     -0.639417    83A     -0.635942    84A     -0.629383
      85A     -0.621867    86A     -0.617741    87A     -0.612356
      88A     -0.607223    89A     -0.603086    90A     -0.602131
      91A     -0.598947    92A     -0.595636    93A     -0.591706
      94A     -0.588909    95A     -0.584447    96A     -0.581053
      97A     -0.577881    98A     -0.571757    99A     -0.563497
     100A     -0.562657   101A     -0.547750   102A     -0.545645
     103A     -0.529119   104A     -0.525046   105A     -0.520678
     106A     -0.519890   107A     -0.513767   108A     -0.509597
     109A     -0.505633   110A     -0.503805   111A     -0.502106
     112A     -0.492072   113A     -0.484416   114A     -0.480498
     115A     -0.458354   116A     -0.452440   117A     -0.444046
     118A     -0.432635   119A     -0.427114   120A     -0.424181
     121A     -0.414849   122A     -0.404348   123A     -0.401414
     124A     -0.379162   125A     -0.374734   126A     -0.347297
     127A     -0.344580   128A     -0.339832   129A     -0.314942
     130A     -0.310125   131A     -0.289591

  @DF-RHF Final Energy: -1572.36288900132718

   => Energetics <=

    Nuclear Repulsion Energy =           3696.1725451005918330
    One-Electron Energy =               -9490.8357253893591405
    Two-Electron Energy =                4222.3002912874408139
    Total Energy =                      -1572.3628890013269483

  Dipole Moment: [D]
     X:     2.7723      Y:     6.5795      Z:    -1.4745     Total:     7.2904

  Basis Set: (6-311++G** AUX)
    Blend: AUG-CC-PVTZ-RI
	 Reference Energy          =   -1572.3628890013271757 [Eh]
	 Singles Energy            =      -0.0000000000000000 [Eh]
	 Same-Spin Energy          =      -1.4707483285975553 [Eh]
	 Opposite-Spin Energy      =      -4.0473651613395205 [Eh]
	 Correlation Energy        =      -5.5181134899370754 [Eh]
	 Total Energy              =   -1577.8810024912643257 [Eh]

	 ================> DF-SCS-MP2 Energies <==================
	-----------------------------------------------------------
	 SCS Same-Spin Scale       =       0.3333333333333333 [-]
	 SCS Opposite-Spin Scale   =       1.2000000000000000 [-]
	 SCS Same-Spin Energy      =      -0.4902494428658518 [Eh]
	 SCS Opposite-Spin Energy  =      -4.8568381936074241 [Eh]
	 SCS Correlation Energy    =      -5.3470876364732760 [Eh]
	 SCS Total Energy          =   -1577.7099766378005370 [Eh]
	-----------------------------------------------------------

*** Psi4 exiting successfully. Buy a developer a beer!
