                               Psi4 1.3.2 release

  ==> Input File <==

--------------------------------------------------------------------------
molecule {
0 1
 C    0.018316    4.954399   -0.248891
 C    1.384322    4.672879   -0.382325
 C    1.885621    3.414134    0.005068
 C    0.935276    2.508871    0.537508
 N   -0.373156    2.759582    0.667429
 C   -0.817249    3.963507    0.277773
 C    3.332435    3.010707   -0.130520
 C    4.362734    3.850594   -0.587498
 C    5.636500    3.275070   -0.659013
 N    5.908010    2.014625   -0.330257
 C    4.858812    1.280701    0.091067
 N    3.609463    1.734732    0.201431
 N    5.157039   -0.025414    0.416974
 C    4.418506   -1.258333    0.334761
 C    5.123427   -2.498050    0.416923
 C    4.367403   -3.677685    0.323324
 C    2.978183   -3.703038    0.161214
 C    2.293482   -2.484238    0.105163
 C    3.025967   -1.287160    0.176905
 N    0.877343   -2.339448   -0.052736
 C   -0.106530   -3.261966   -0.328467
 C   -1.473879   -2.720257   -0.698193
 C   -1.662584   -1.548665   -1.449671
 C   -2.950452   -1.070241   -1.700281
 C   -4.092277   -1.753158   -1.240589
 C   -3.888246   -2.949958   -0.526623
 C   -2.603939   -3.435423   -0.269299
 C   -5.495746   -1.183090   -1.455935
 N   -6.019838   -0.172453   -0.521657
 C   -5.509414    1.215402   -0.591709
 C   -4.332038    1.533233    0.367458
 N   -4.612309    1.179169    1.781421
 C   -5.380685    2.154748    2.564247
 C   -5.064698   -0.232057    1.845532
 C   -6.241451   -0.559079    0.890503
 O    0.080672   -4.466852   -0.267887
 C    6.631186   -2.593169    0.582173
 H   -0.389603    5.916354   -0.544874
 H    2.031542    5.440239   -0.799491
 H    1.246956    1.530378    0.890277
 H   -1.885453    4.132852    0.402499
 H    4.229437    4.885555   -0.877619
 H    6.504370    3.839825   -0.998230
 H    6.126846   -0.085225    0.688083
 H    4.875987   -4.639498    0.374349
 H    2.434700   -4.636624    0.087602
 H    2.504793   -0.345282    0.111888
 H    0.556210   -1.381805   -0.024046
 H   -0.796908   -1.007488   -1.823181
 H   -3.062955   -0.139205   -2.255296
 H   -4.744222   -3.504515   -0.143607
 H   -2.459664   -4.359055    0.285597
 H   -5.536945   -0.738692   -2.459957
 H   -6.211403   -2.017431   -1.443914
 H   -5.166781    1.520271   -1.872192
 H   -6.637367    2.109379   -0.229019
 H   -4.053938    2.616234    0.305101
 H   -3.330930    0.900736    0.031122
 H   -6.399109    2.257587    2.172622
 H   -4.889107    3.134168    2.534406
 H   -5.435318    1.839362    3.612696
 H   -5.354675   -0.507939    2.995898
 H   -3.923112   -1.053242    1.484603
 H   -7.416703    0.191572    1.364250
 H   -6.531294   -1.725311    0.962439
 H    6.979174   -2.171965    1.536156
 H    7.149586   -2.055669   -0.216880
 H    6.995127   -3.623360    0.549495
}
memory 20GB
set_num_threads(6)
psi4_io.set_default_path("/scratch/bdw2292")
set freeze_core True
E, wfn = energy('mp2/6-311++G**',return_wfn=True)
oeprop(wfn,"WIBERG_LOWDIN_INDICES")
clean()
--------------------------------------------------------------------------

    Molecular point group: c1

    Geometry (in Angstrom), charge = 0, multiplicity = 1:

       Center              X                  Y                   Z               Mass
    ------------   -----------------  -----------------  -----------------  -----------------
         C           -0.086509347793     4.949379664064    -0.276622392069    12.000000000000
         C            1.279496652207     4.667859664064    -0.410056392069    12.000000000000
         C            1.780795652207     3.409114664064    -0.022663392069    12.000000000000
         C            0.830450652207     2.503851664064     0.509776607931    12.000000000000
         N           -0.477981347793     2.754562664064     0.639697607931    14.003074004430
         C           -0.922074347793     3.958487664064     0.250041607931    12.000000000000
         C            3.227609652207     3.005687664064    -0.158251392069    12.000000000000
         C            4.257908652207     3.845574664064    -0.615229392069    12.000000000000
         C            5.531674652207     3.270050664064    -0.686744392069    12.000000000000
         N            5.803184652207     2.009605664064    -0.357988392069    14.003074004430
         C            4.753986652207     1.275681664064     0.063335607931    12.000000000000
         N            3.504637652207     1.729712664064     0.173699607931    14.003074004430
         N            5.052213652207    -0.030433335936     0.389242607931    14.003074004430
         C            4.313680652207    -1.263352335936     0.307029607931    12.000000000000
         C            5.018601652207    -2.503069335936     0.389191607931    12.000000000000
         C            4.262577652207    -3.682704335936     0.295592607931    12.000000000000
         C            2.873357652207    -3.708057335936     0.133482607931    12.000000000000
         C            2.188656652207    -2.489257335936     0.077431607931    12.000000000000
         C            2.921141652207    -1.292179335936     0.149173607931    12.000000000000
         N            0.772517652207    -2.344467335936    -0.080467392069    14.003074004430
         C           -0.211355347793    -3.266985335936    -0.356198392069    12.000000000000
         C           -1.578704347793    -2.725276335936    -0.725924392069    12.000000000000
         C           -1.767409347793    -1.553684335936    -1.477402392069    12.000000000000
         C           -3.055277347793    -1.075260335936    -1.728012392069    12.000000000000
         C           -4.197102347793    -1.758177335936    -1.268320392069    12.000000000000
         C           -3.993071347793    -2.954977335936    -0.554354392069    12.000000000000
         C           -2.708764347793    -3.440442335936    -0.297030392069    12.000000000000
         C           -5.600571347793    -1.188109335936    -1.483666392069    12.000000000000
         N           -6.124663347793    -0.177472335936    -0.549388392069    14.003074004430
         C           -5.614239347793     1.210382664064    -0.619440392069    12.000000000000
         C           -4.436863347793     1.528213664064     0.339726607931    12.000000000000
         N           -4.717134347793     1.174149664064     1.753689607931    14.003074004430
         C           -5.485510347793     2.149728664064     2.536515607931    12.000000000000
         C           -5.169523347793    -0.237076335936     1.817800607931    12.000000000000
         C           -6.346276347793    -0.564098335936     0.862771607931    12.000000000000
         O           -0.024153347793    -4.471871335936    -0.295618392069    15.994914619570
         C            6.526360652207    -2.598188335936     0.554441607931    12.000000000000
         H           -0.494428347793     5.911334664064    -0.572605392069     1.007825032230
         H            1.926716652207     5.435219664064    -0.827222392069     1.007825032230
         H            1.142130652207     1.525358664064     0.862545607931     1.007825032230
         H           -1.990278347793     4.127832664064     0.374767607931     1.007825032230
         H            4.124611652207     4.880535664064    -0.905350392069     1.007825032230
         H            6.399544652207     3.834805664064    -1.025961392069     1.007825032230
         H            6.022020652207    -0.090244335936     0.660351607931     1.007825032230
         H            4.771161652207    -4.644517335936     0.346617607931     1.007825032230
         H            2.329874652207    -4.641643335936     0.059870607931     1.007825032230
         H            2.399967652207    -0.350301335936     0.084156607931     1.007825032230
         H            0.451384652207    -1.386824335936    -0.051777392069     1.007825032230
         H           -0.901733347793    -1.012507335936    -1.850912392069     1.007825032230
         H           -3.167780347793    -0.144224335936    -2.283027392069     1.007825032230
         H           -4.849047347793    -3.509534335936    -0.171338392069     1.007825032230
         H           -2.564489347793    -4.364074335936     0.257865607931     1.007825032230
         H           -5.641770347793    -0.743711335936    -2.487688392069     1.007825032230
         H           -6.316228347793    -2.022450335936    -1.471645392069     1.007825032230
         H           -5.271606347793     1.515251664064    -1.899923392069     1.007825032230
         H           -6.742192347793     2.104359664064    -0.256750392069     1.007825032230
         H           -4.158763347793     2.611214664064     0.277369607931     1.007825032230
         H           -3.435755347793     0.895716664064     0.003390607931     1.007825032230
         H           -6.503934347793     2.252567664064     2.144890607931     1.007825032230
         H           -4.993932347793     3.129148664064     2.506674607931     1.007825032230
         H           -5.540143347793     1.834342664064     3.584964607931     1.007825032230
         H           -5.459500347793    -0.512958335936     2.968166607931     1.007825032230
         H           -4.027937347793    -1.058261335936     1.456871607931     1.007825032230
         H           -7.521528347793     0.186552664064     1.336518607931     1.007825032230
         H           -6.636119347793    -1.730330335936     0.934707607931     1.007825032230
         H            6.874348652207    -2.176984335936     1.508424607931     1.007825032230
         H            7.044760652207    -2.060688335936    -0.244611392069     1.007825032230
         H            6.890301652207    -3.628379335936     0.521763607931     1.007825032230

  Charge       = 0
  Multiplicity = 1
  Basis Set: 6-311++G**
    Blend: 6-311++G**
  Basis Set: (6-311++G** AUX)
    Blend: AUG-CC-PVTZ-JKFIT

    Orbital Energies [Eh]
    ---------------------

    Doubly Occupied:

       1A    -20.522782     2A    -15.602355     3A    -15.597008
       4A    -15.581649     5A    -15.573577     6A    -15.571141
       7A    -15.569298     8A    -15.550803     9A    -11.371842
      10A    -11.365516    11A    -11.333850    12A    -11.325311
      13A    -11.312631    14A    -11.311821    15A    -11.302212
      16A    -11.301600    17A    -11.297660    18A    -11.296473
      19A    -11.292821    20A    -11.287025    21A    -11.277953
      22A    -11.277156    23A    -11.274371    24A    -11.263224
      25A    -11.259549    26A    -11.258113    27A    -11.257772
      28A    -11.253978    29A    -11.251287    30A    -11.248852
      31A    -11.247118    32A    -11.246603    33A    -11.244976
      34A    -11.238560    35A    -11.232254    36A    -11.230723
      37A    -11.222659    38A     -1.387659    39A     -1.345117
      40A     -1.274544    41A     -1.250906    42A     -1.243715
      43A     -1.241018    44A     -1.209645    45A     -1.197833
      46A     -1.163676    47A     -1.138932    48A     -1.113695
      49A     -1.074006    50A     -1.060124    51A     -1.046464
      52A     -1.036946    53A     -1.026286    54A     -1.006665
      55A     -0.993436    56A     -0.976927    57A     -0.946424
      58A     -0.927969    59A     -0.924964    60A     -0.900016
      61A     -0.869965    62A     -0.865292    63A     -0.856135
      64A     -0.843997    65A     -0.838175    66A     -0.827362
      67A     -0.821412    68A     -0.805835    69A     -0.778535
      70A     -0.753566    71A     -0.737718    72A     -0.731262
      73A     -0.720166    74A     -0.706309    75A     -0.698121
      76A     -0.681752    77A     -0.670465    78A     -0.666435
      79A     -0.658172    80A     -0.654963    81A     -0.651860
      82A     -0.639295    83A     -0.637030    84A     -0.634111
      85A     -0.623040    86A     -0.616617    87A     -0.610368
      88A     -0.607773    89A     -0.606564    90A     -0.600925
      91A     -0.597420    92A     -0.595646    93A     -0.594123
      94A     -0.590122    95A     -0.586634    96A     -0.580484
      97A     -0.579003    98A     -0.574110    99A     -0.564644
     100A     -0.557460   101A     -0.546849   102A     -0.542141
     103A     -0.531899   104A     -0.525798   105A     -0.522458
     106A     -0.519325   107A     -0.514645   108A     -0.512071
     109A     -0.507865   110A     -0.506219   111A     -0.502575
     112A     -0.495149   113A     -0.484121   114A     -0.479262
     115A     -0.462514   116A     -0.450398   117A     -0.438094
     118A     -0.435400   119A     -0.428364   120A     -0.424424
     121A     -0.413994   122A     -0.409797   123A     -0.397862
     124A     -0.380142   125A     -0.374140   126A     -0.347489
     127A     -0.344236   128A     -0.343535   129A     -0.315120
     130A     -0.311894   131A     -0.288871

  @DF-RHF Final Energy: -1572.37064995697233

   => Energetics <=

    Nuclear Repulsion Energy =           3752.9773479811278776
    One-Electron Energy =               -9604.4379926597612211
    Two-Electron Energy =                4279.0899947216603323
    Total Energy =                      -1572.3706499569725565

  Dipole Moment: [D]
     X:     0.8335      Y:     6.6712      Z:    -1.1129     Total:     6.8146

  Basis Set: (6-311++G** AUX)
    Blend: AUG-CC-PVTZ-RI
	 Reference Energy          =   -1572.3706499569723292 [Eh]
	 Singles Energy            =      -0.0000000000000000 [Eh]
	 Same-Spin Energy          =      -1.4707059856718827 [Eh]
	 Opposite-Spin Energy      =      -4.0461599437692479 [Eh]
	 Correlation Energy        =      -5.5168659294411304 [Eh]
	 Total Energy              =   -1577.8875158864134391 [Eh]

	 ================> DF-SCS-MP2 Energies <==================
	-----------------------------------------------------------
	 SCS Same-Spin Scale       =       0.3333333333333333 [-]
	 SCS Opposite-Spin Scale   =       1.2000000000000000 [-]
	 SCS Same-Spin Energy      =      -0.4902353285572942 [Eh]
	 SCS Opposite-Spin Energy  =      -4.8553919325230970 [Eh]
	 SCS Correlation Energy    =      -5.3456272610803914 [Eh]
	 SCS Total Energy          =   -1577.7162772180527099 [Eh]
	-----------------------------------------------------------

*** Psi4 exiting successfully. Buy a developer a beer!
