                               Psi4 1.3.2 release

  ==> Input File <==

--------------------------------------------------------------------------
molecule {
0 1
 C    2.146919    6.200076    1.833359
 C    2.695550    5.423725    0.804202
 C    3.134674    4.110757    1.069014
 C    2.982035    3.663798    2.405097
 N    2.459252    4.393454    3.399530
 C    2.051090    5.637310    3.110433
 C    3.731610    3.206601    0.020705
 C    3.916343    3.543618   -1.332190
 C    4.480189    2.549693   -2.140736
 N    4.830154    1.342383   -1.707851
 C    4.611891    1.115733   -0.398881
 N    4.085376    1.984041    0.462569
 N    4.973235   -0.124863    0.037845
 C    4.214887   -1.330785    0.176747
 C    4.855272   -2.506204    0.671558
 C    4.068421   -3.663301    0.781736
 C    2.712682   -3.717044    0.441538
 C    2.097900   -2.554819   -0.038473
 C    2.855889   -1.376521   -0.165382
 N    0.719457   -2.442725   -0.419399
 C   -0.294699   -3.374022   -0.423942
 C   -1.681234   -2.929506   -0.850762
 C   -1.921486   -1.878350   -1.751034
 C   -3.228223   -1.501285   -2.068609
 C   -4.339694   -2.164821   -1.515690
 C   -4.085731   -3.220616   -0.619642
 C   -2.782190   -3.603651   -0.295438
 C   -5.767574   -1.721122   -1.839865
 N   -6.378830   -0.632589   -1.055629
 C   -5.911166    0.755549   -1.271584
 C   -4.803948    1.222140   -0.291536
 N   -5.145048    1.043174    1.138831
 C   -5.984100    2.079924    1.751245
 C   -5.566987   -0.361147    1.357306
 C   -6.661645   -0.863352    0.379962
 O   -0.121534   -4.527628   -0.063483
 C    6.320639   -2.558372    1.069043
 H    1.801897    7.213788    1.652306
 H    2.767310    5.864577   -0.187097
 H    3.300000    2.661107    2.676631
 H    1.629625    6.203044    3.939610
 H    3.651864    4.503036   -1.759501
 H    4.656699    2.734443   -3.199963
 H    5.958198   -0.146951    0.257186
 H    4.521391   -4.581960    1.152151
 H    2.144309   -4.632696    0.548423
 H    2.394933   -0.468767   -0.532436
 H    0.425434   -1.496505   -0.614530
 H   -1.083122   -1.358173   -2.207341
 H   -3.380373   -0.674558   -2.762791
 H   -4.915604   -3.754055   -0.156771
 H   -2.596268   -4.419467    0.398741
 H   -5.803498   -1.413697   -2.895169
 H   -6.431202   -2.592446   -1.739048
 H   -5.651875    0.912177   -2.284655
 H   -7.145677    1.699013   -0.978509
 H   -4.573437    2.668004   -0.542469
 H   -3.779396    0.644712   -0.499917
 H   -6.984863    2.091663    1.305046
 H   -5.524858    3.065813    1.617235
 H   -6.080937    1.899545    2.827884
 H   -5.938170   -0.498111    2.524329
 H   -4.379257   -1.198252    1.166638
 H   -7.950214   -0.014868    0.732205
 H   -6.918858   -1.904329    0.556103
 H    6.546540   -1.837247    1.867182
 H    6.975165   -2.326097    0.217061
 H    6.629529   -3.544403    1.442213
}
memory 20GB
set_num_threads(6)
psi4_io.set_default_path("/scratch/bdw2292")
set freeze_core True
E, wfn = energy('mp2/6-311++G**',return_wfn=True)
oeprop(wfn,"WIBERG_LOWDIN_INDICES")
clean()
--------------------------------------------------------------------------

    Molecular point group: c1

    Geometry (in Angstrom), charge = 0, multiplicity = 1:

       Center              X                  Y                   Z               Mass
    ------------   -----------------  -----------------  -----------------  -----------------
         C            1.972899093048     6.173667564541     1.752372870688    12.000000000000
         C            2.521530093048     5.397316564541     0.723215870688    12.000000000000
         C            2.960654093048     4.084348564541     0.988027870688    12.000000000000
         C            2.808015093048     3.637389564541     2.324110870688    12.000000000000
         N            2.285232093048     4.367045564541     3.318543870688    14.003074004430
         C            1.877070093048     5.610901564541     3.029446870688    12.000000000000
         C            3.557590093048     3.180192564541    -0.060281129312    12.000000000000
         C            3.742323093048     3.517209564541    -1.413176129312    12.000000000000
         C            4.306169093048     2.523284564541    -2.221722129312    12.000000000000
         N            4.656134093048     1.315974564541    -1.788837129312    14.003074004430
         C            4.437871093048     1.089324564541    -0.479867129312    12.000000000000
         N            3.911356093048     1.957632564541     0.381582870688    14.003074004430
         N            4.799215093048    -0.151271435459    -0.043141129312    14.003074004430
         C            4.040867093048    -1.357193435459     0.095760870688    12.000000000000
         C            4.681252093048    -2.532612435459     0.590571870688    12.000000000000
         C            3.894401093048    -3.689709435459     0.700749870688    12.000000000000
         C            2.538662093048    -3.743452435459     0.360551870688    12.000000000000
         C            1.923880093048    -2.581227435459    -0.119459129312    12.000000000000
         C            2.681869093048    -1.402929435459    -0.246368129312    12.000000000000
         N            0.545437093048    -2.469133435459    -0.500385129312    14.003074004430
         C           -0.468718906952    -3.400430435459    -0.504928129312    12.000000000000
         C           -1.855253906952    -2.955914435459    -0.931748129312    12.000000000000
         C           -2.095505906952    -1.904758435459    -1.832020129312    12.000000000000
         C           -3.402242906952    -1.527693435459    -2.149595129312    12.000000000000
         C           -4.513713906952    -2.191229435459    -1.596676129312    12.000000000000
         C           -4.259750906952    -3.247024435459    -0.700628129312    12.000000000000
         C           -2.956209906952    -3.630059435459    -0.376424129312    12.000000000000
         C           -5.941593906952    -1.747530435459    -1.920851129312    12.000000000000
         N           -6.552849906952    -0.658997435459    -1.136615129312    14.003074004430
         C           -6.085185906952     0.729140564541    -1.352570129312    12.000000000000
         C           -4.977967906952     1.195731564541    -0.372522129312    12.000000000000
         N           -5.319067906952     1.016765564541     1.057844870688    14.003074004430
         C           -6.158119906952     2.053515564541     1.670258870688    12.000000000000
         C           -5.741006906952    -0.387555435459     1.276319870688    12.000000000000
         C           -6.835664906952    -0.889760435459     0.298975870688    12.000000000000
         O           -0.295553906952    -4.554036435459    -0.144469129312    15.994914619570
         C            6.146619093048    -2.584780435459     0.988056870688    12.000000000000
         H            1.627877093048     7.187379564541     1.571319870688     1.007825032230
         H            2.593290093048     5.838168564541    -0.268083129312     1.007825032230
         H            3.125980093048     2.634698564541     2.595644870688     1.007825032230
         H            1.455605093048     6.176635564541     3.858623870688     1.007825032230
         H            3.477844093048     4.476627564541    -1.840487129312     1.007825032230
         H            4.482679093048     2.708034564541    -3.280949129312     1.007825032230
         H            5.784178093048    -0.173359435459     0.176199870688     1.007825032230
         H            4.347371093048    -4.608368435459     1.071164870688     1.007825032230
         H            1.970289093048    -4.659104435459     0.467436870688     1.007825032230
         H            2.220913093048    -0.495175435459    -0.613422129312     1.007825032230
         H            0.251414093048    -1.522913435459    -0.695516129312     1.007825032230
         H           -1.257141906952    -1.384581435459    -2.288327129312     1.007825032230
         H           -3.554392906952    -0.700966435459    -2.843777129312     1.007825032230
         H           -5.089623906952    -3.780463435459    -0.237757129312     1.007825032230
         H           -2.770287906952    -4.445875435459     0.317754870688     1.007825032230
         H           -5.977517906952    -1.440105435459    -2.976155129312     1.007825032230
         H           -6.605221906952    -2.618854435459    -1.820034129312     1.007825032230
         H           -5.825894906952     0.885768564541    -2.365641129312     1.007825032230
         H           -7.319696906952     1.672604564541    -1.059495129312     1.007825032230
         H           -4.747456906952     2.641595564541    -0.623455129312     1.007825032230
         H           -3.953415906952     0.618303564541    -0.580903129312     1.007825032230
         H           -7.158882906952     2.065254564541     1.224059870688     1.007825032230
         H           -5.698877906952     3.039404564541     1.536248870688     1.007825032230
         H           -6.254956906952     1.873136564541     2.746897870688     1.007825032230
         H           -6.112189906952    -0.524519435459     2.443342870688     1.007825032230
         H           -4.553276906952    -1.224660435459     1.085651870688     1.007825032230
         H           -8.124233906952    -0.041276435459     0.651218870688     1.007825032230
         H           -7.092877906952    -1.930737435459     0.475116870688     1.007825032230
         H            6.372520093048    -1.863655435459     1.786195870688     1.007825032230
         H            6.801145093048    -2.352505435459     0.136074870688     1.007825032230
         H            6.455509093048    -3.570811435459     1.361226870688     1.007825032230

  Charge       = 0
  Multiplicity = 1
  Basis Set: 6-311++G**
    Blend: 6-311++G**
  Basis Set: (6-311++G** AUX)
    Blend: AUG-CC-PVTZ-JKFIT

    Orbital Energies [Eh]
    ---------------------

    Doubly Occupied:

       1A    -20.524093     2A    -15.605565     3A    -15.581425
       4A    -15.579987     5A    -15.577252     6A    -15.577191
       7A    -15.573136     8A    -15.558571     9A    -11.368656
      10A    -11.363617    11A    -11.332952    12A    -11.312522
      13A    -11.312265    14A    -11.311859    15A    -11.310594
      16A    -11.307921    17A    -11.301046    18A    -11.294538
      19A    -11.293636    20A    -11.291412    21A    -11.286264
      22A    -11.284176    23A    -11.274369    24A    -11.266097
      25A    -11.265572    26A    -11.265481    27A    -11.264898
      28A    -11.259167    29A    -11.256786    30A    -11.256460
      31A    -11.253400    32A    -11.245808    33A    -11.238994
      34A    -11.236861    35A    -11.232050    36A    -11.231167
      37A    -11.217532    38A     -1.390595    39A     -1.347822
      40A     -1.269857    41A     -1.251558    42A     -1.251082
      43A     -1.239347    44A     -1.213591    45A     -1.204495
      46A     -1.169981    47A     -1.137775    48A     -1.110891
      49A     -1.074033    50A     -1.064785    51A     -1.044544
      52A     -1.037169    53A     -1.032547    54A     -1.004260
      55A     -1.003924    56A     -0.982486    57A     -0.945494
      58A     -0.930399    59A     -0.923785    60A     -0.901469
      61A     -0.870550    62A     -0.866336    63A     -0.853718
      64A     -0.851017    65A     -0.840668    66A     -0.838827
      67A     -0.823498    68A     -0.810706    69A     -0.778986
      70A     -0.752714    71A     -0.739863    72A     -0.731914
      73A     -0.718692    74A     -0.715937    75A     -0.711958
      76A     -0.686414    77A     -0.681803    78A     -0.666942
      79A     -0.666127    80A     -0.657137    81A     -0.655070
      82A     -0.648998    83A     -0.638062    84A     -0.637269
      85A     -0.625686    86A     -0.616376    87A     -0.611832
      88A     -0.608697    89A     -0.606204    90A     -0.603411
      91A     -0.599473    92A     -0.593641    93A     -0.591835
      94A     -0.587407    95A     -0.586905    96A     -0.582814
      97A     -0.579017    98A     -0.577307    99A     -0.568358
     100A     -0.547980   101A     -0.546733   102A     -0.544546
     103A     -0.539677   104A     -0.536261   105A     -0.530077
     106A     -0.522615   107A     -0.511727   108A     -0.507653
     109A     -0.505869   110A     -0.504801   111A     -0.504168
     112A     -0.498473   113A     -0.490942   114A     -0.465775
     115A     -0.455271   116A     -0.450083   117A     -0.436056
     118A     -0.432163   119A     -0.425914   120A     -0.416187
     121A     -0.413395   122A     -0.403436   123A     -0.397792
     124A     -0.384702   125A     -0.381641   126A     -0.354405
     127A     -0.349820   128A     -0.340506   129A     -0.317300
     130A     -0.314891   131A     -0.286678

  @DF-RHF Final Energy: -1572.30345073167609

   => Energetics <=

    Nuclear Repulsion Energy =           3613.0064893797562036
    One-Electron Energy =               -9323.9300669112144533
    Two-Electron Energy =                4138.6201267997821560
    Total Energy =                      -1572.3034507316760937

  Dipole Moment: [D]
     X:     0.1637      Y:     5.9316      Z:    -3.0242     Total:     6.6601

  Basis Set: (6-311++G** AUX)
    Blend: AUG-CC-PVTZ-RI
	 Reference Energy          =   -1572.3034507316760937 [Eh]
	 Singles Energy            =      -0.0000000000000000 [Eh]
	 Same-Spin Energy          =      -1.4686762441980683 [Eh]
	 Opposite-Spin Energy      =      -4.0451997176949934 [Eh]
	 Correlation Energy        =      -5.5138759618930617 [Eh]
	 Total Energy              =   -1577.8173266935691572 [Eh]

	 ================> DF-SCS-MP2 Energies <==================
	-----------------------------------------------------------
	 SCS Same-Spin Scale       =       0.3333333333333333 [-]
	 SCS Opposite-Spin Scale   =       1.2000000000000000 [-]
	 SCS Same-Spin Energy      =      -0.4895587480660227 [Eh]
	 SCS Opposite-Spin Energy  =      -4.8542396612339918 [Eh]
	 SCS Correlation Energy    =      -5.3437984093000148 [Eh]
	 SCS Total Energy          =   -1577.6472491409761005 [Eh]
	-----------------------------------------------------------

*** Psi4 exiting successfully. Buy a developer a beer!
