 Gaussian 09, Revision A.02,
 Gaussian 09:  EM64L-G09RevA.02 11-Jun-2009

 --------------------------------------------------
 #P opt=(,maxcycle=400) wB97XD/6-31G* MaxDisk=100GB
 --------------------------------------------------

 --------------------------------------------------------------
 MOLECULE0 Rotatable Bond Optimization on node37.bme.utexas.edu
 --------------------------------------------------------------
 Symbolic Z-matrix:
 Charge =  0 Multiplicity = 1

 SCF Done:  E(RwB97XD) =  -1581.51811471     A.U. after   16 cycles
 SCF Done:  E(RwB97XD) =  -1581.57740586     A.U. after   13 cycles
 SCF Done:  E(RwB97XD) =  -1581.67593073     A.U. after   14 cycles
 SCF Done:  E(RwB97XD) =  -1581.72741977     A.U. after   14 cycles
 SCF Done:  E(RwB97XD) =  -1581.74792645     A.U. after   15 cycles
 SCF Done:  E(RwB97XD) =  -1581.75210845     A.U. after   14 cycles
 SCF Done:  E(RwB97XD) =  -1581.75451808     A.U. after   17 cycles
 SCF Done:  E(RwB97XD) =  -1581.75500716     A.U. after   14 cycles
 SCF Done:  E(RwB97XD) =  -1581.75511761     A.U. after   14 cycles
 SCF Done:  E(RwB97XD) =  -1581.75529804     A.U. after   12 cycles
 SCF Done:  E(RwB97XD) =  -1581.75556912     A.U. after   12 cycles
 SCF Done:  E(RwB97XD) =  -1581.75555606     A.U. after   13 cycles
 SCF Done:  E(RwB97XD) =  -1581.75556692     A.U. after   12 cycles
 SCF Done:  E(RwB97XD) =  -1581.75556680     A.U. after    7 cycles
 SCF Done:  E(RwB97XD) =  -1581.75556574     A.U. after    8 cycles
 SCF Done:  E(RwB97XD) =  -1581.75556553     A.U. after    7 cycles
 SCF Done:  E(RwB97XD) =  -1581.75556422     A.U. after    9 cycles
 SCF Done:  E(RwB97XD) =  -1581.75556574     A.U. after    9 cycles
 SCF Done:  E(RwB97XD) =  -1581.75556404     A.U. after    9 cycles
 SCF Done:  E(RwB97XD) =  -1581.75556498     A.U. after    8 cycles
 Optimization completed.
    -- Stationary point found.

                         Standard orientation:
 ---------------------------------------------------------------------
 Center     Atomic      Atomic             Coordinates (Angstroms)
 Number     Number       Type             X           Y           Z
 ---------------------------------------------------------------------
      1          6           0       -7.803447    2.475433   -2.165207
      2          6           0       -7.432056    2.204135   -0.855381
      3          6           0       -6.221411    1.554195   -0.613989
      4          6           0       -5.445283    1.200139   -1.725459
      5          7           0       -5.788438    1.457235   -2.986655
      6          6           0       -6.949067    2.084719   -3.191160
      7          6           0       -5.748249    1.222786    0.752373
      8          6           0       -6.239230    1.849076    1.898909
      9          6           0       -5.707392    1.422998    3.110805
     10          7           0       -4.782553    0.476544    3.216074
     11          6           0       -4.371083   -0.050609    2.047790
     12          7           0       -4.803225    0.281790    0.830134
     13          7           0       -3.419639   -1.026699    2.150406
     14          6           0       -2.718581   -1.617419    1.066276
     15          6           0       -3.371618   -2.429101    0.127604
     16          6           0       -2.584088   -2.989185   -0.878142
     17          6           0       -1.210483   -2.799615   -0.965148
     18          6           0       -0.575183   -2.009521   -0.005209
     19          6           0       -1.342599   -1.417386    0.998821
     20          7           0        0.812429   -1.767617    0.017596
     21          6           0        1.773383   -2.217874   -0.852598
     22          6           0        3.177740   -1.820585   -0.494663
     23          6           0        3.605556   -1.593896    0.815711
     24          6           0        4.928134   -1.250961    1.071695
     25          6           0        5.849785   -1.115265    0.032805
     26          6           0        5.420674   -1.378671   -1.270567
     27          6           0        4.104262   -1.729434   -1.534505
     28          6           0        7.282291   -0.680475    0.307907
     29          7           0        7.578800    0.741522    0.305797
     30          6           0        7.083603    1.538486    1.421741
     31          6           0        5.724435    2.206983    1.154515
     32          7           0        5.696460    2.965608   -0.092837
     33          6           0        6.409887    4.229051   -0.027748
     34          6           0        6.111553    2.109877   -1.201474
     35          6           0        7.478399    1.444410   -0.968244
     36          8           0        1.537461   -2.879790   -1.849880
     37          6           0       -4.847184   -2.708580    0.194440
     38          1           0       -8.741098    2.973049   -2.389110
     39          1           0       -8.090776    2.478387   -0.036661
     40          1           0       -4.500918    0.685945   -1.570193
     41          1           0       -7.208234    2.280462   -4.229453
     42          1           0       -6.976853    2.640549    1.863262
     43          1           0       -6.040589    1.868638    4.046181
     44          1           0       -3.021506   -1.109283    3.074410
     45          1           0       -3.064981   -3.619189   -1.621995
     46          1           0       -0.633747   -3.256260   -1.756318
     47          1           0       -0.871994   -0.775527    1.740973
     48          1           0        1.120588   -1.112760    0.720234
     49          1           0        2.924238   -1.727661    1.652300
     50          1           0        5.250934   -1.091207    2.097942
     51          1           0        6.131693   -1.307266   -2.090469
     52          1           0        3.773371   -1.945643   -2.544932
     53          1           0        7.589657   -1.074490    1.284532
     54          1           0        7.937204   -1.148618   -0.437844
     55          1           0        7.027970    0.903629    2.313653
     56          1           0        7.830097    2.317658    1.637066
     57          1           0        5.466824    2.879088    1.982175
     58          1           0        4.941997    1.441191    1.094038
     59          1           0        7.495884    4.152662    0.156033
     60          1           0        5.980070    4.841649    0.772245
     61          1           0        6.270315    4.765324   -0.972555
     62          1           0        6.136959    2.708721   -2.119928
     63          1           0        5.342386    1.339658   -1.332296
     64          1           0        8.262205    2.215891   -0.991629
     65          1           0        7.704499    0.742335   -1.778756
     66          1           0       -5.417086   -1.891160   -0.259392
     67          1           0       -5.184042   -2.801488    1.232019
     68          1           0       -5.088083   -3.636904   -0.331493
 ---------------------------------------------------------------------

 The electronic state is 1-A.
 Alpha  occ. eigenvalues --  -19.24197 -14.49483 -14.48030 -14.45069 -14.44887
 Alpha  occ. eigenvalues --  -14.44838 -14.44027 -14.43421 -10.41046 -10.40705
 Alpha  occ. eigenvalues --  -10.36597 -10.35387 -10.34759 -10.34099 -10.33831
 Alpha  occ. eigenvalues --  -10.33387 -10.32963 -10.32833 -10.32208 -10.32067
 Alpha  occ. eigenvalues --  -10.31944 -10.31701 -10.31617 -10.31594 -10.31502
 Alpha  occ. eigenvalues --  -10.31284 -10.31103 -10.31071 -10.30977 -10.30904
 Alpha  occ. eigenvalues --  -10.30864 -10.30811 -10.30409 -10.30288 -10.29503
 Alpha  occ. eigenvalues --  -10.28956 -10.28084  -1.14416  -1.11316  -1.04760
 Alpha  occ. eigenvalues --   -1.04558  -1.04232  -1.03279  -0.99948  -0.99735
 Alpha  occ. eigenvalues --   -0.96977  -0.94687  -0.91915  -0.88784  -0.88412
 Alpha  occ. eigenvalues --   -0.86432  -0.86265  -0.85908  -0.85371  -0.83578
 Alpha  occ. eigenvalues --   -0.82271  -0.79405  -0.77917  -0.77122  -0.75255
 Alpha  occ. eigenvalues --   -0.73645  -0.73245  -0.72567  -0.71475  -0.71174
 Alpha  occ. eigenvalues --   -0.71069  -0.70359  -0.68221  -0.66378  -0.64700
 Alpha  occ. eigenvalues --   -0.64102  -0.63671  -0.62373  -0.60911  -0.59639
 Alpha  occ. eigenvalues --   -0.58655  -0.57736  -0.57207  -0.56379  -0.56221
 Alpha  occ. eigenvalues --   -0.55487  -0.55329  -0.55132  -0.54756  -0.54365
 Alpha  occ. eigenvalues --   -0.53986  -0.53802  -0.53130  -0.53048  -0.52522
 Alpha  occ. eigenvalues --   -0.51701  -0.51426  -0.51188  -0.50916  -0.50496
 Alpha  occ. eigenvalues --   -0.50118  -0.49552  -0.49116  -0.48915  -0.48759
 Alpha  occ. eigenvalues --   -0.47120  -0.46864  -0.46664  -0.46462  -0.45648
 Alpha  occ. eigenvalues --   -0.45245  -0.45039  -0.44939  -0.44198  -0.43929
 Alpha  occ. eigenvalues --   -0.42968  -0.42926  -0.42035  -0.41947  -0.41354
 Alpha  occ. eigenvalues --   -0.41318  -0.40475  -0.39708  -0.37907  -0.36532
 Alpha  occ. eigenvalues --   -0.34346  -0.34309  -0.33935  -0.33790  -0.32870
 Alpha  occ. eigenvalues --   -0.32731  -0.32231  -0.31209  -0.29653  -0.28046
 Alpha  occ. eigenvalues --   -0.25352
 Alpha virt. eigenvalues --    0.00746   0.02462   0.04357   0.05521   0.05855
 Alpha virt. eigenvalues --    0.07568   0.08083   0.09837   0.13887   0.15095
 Alpha virt. eigenvalues --    0.15704   0.17138   0.17201   0.18596   0.18709

 Mulliken atomic charges:
              1
     1  C   -0.196534
     2  C   -0.158527
     3  C    0.026804
     4  C    0.004673
     5  N   -0.421324
     6  C    0.024737
     7  C    0.284968
     8  C   -0.248464
     9  C    0.042718
    10  N   -0.491727
    11  C    0.668746
    12  N   -0.538183
    13  N   -0.764059
    14  C    0.254204
    15  C    0.164282
    16  C   -0.244338
    17  C   -0.183991
    18  C    0.353571
    19  C   -0.271990
    20  N   -0.771907
    21  C    0.603619
    22  C    0.017494
    23  C   -0.208846
    24  C   -0.218871
    25  C    0.159952
    26  C   -0.222418
    27  C   -0.174857
    28  C   -0.264798
    29  N   -0.380300
    30  C   -0.185423
    31  C   -0.180630
    32  N   -0.384960
    33  C   -0.350683
    34  C   -0.182810
    35  C   -0.187214
    36  O   -0.511730
    37  C   -0.571635
    38  H    0.179648
    39  H    0.179788
    40  H    0.212387
    41  H    0.179126
    42  H    0.176073
    43  H    0.183818
    44  H    0.360832
    45  H    0.166936
    46  H    0.222665
    47  H    0.155684
    48  H    0.355751
    49  H    0.168071
    50  H    0.165281
    51  H    0.168569
    52  H    0.203295
    53  H    0.170654
    54  H    0.172423
    55  H    0.151137
    56  H    0.161722
    57  H    0.152884
    58  H    0.162908
    59  H    0.136020
    60  H    0.167344
    61  H    0.168909
    62  H    0.155467
    63  H    0.169407
    64  H    0.161674
    65  H    0.154156
    66  H    0.200554
    67  H    0.177164
    68  H    0.170108
 Sum of Mulliken atomic charges =   0.00000

 Dipole moment (field-independent basis, Debye):
    X=             -0.3192    Y=              2.9820    Z=              3.6443  Tot=              4.7197
 Quadrupole moment (field-independent basis, Debye-Ang):
   XX=           -170.4796   YY=           -216.5929   ZZ=           -211.5208
   XY=            -10.3081   XZ=             -1.0457   YZ=             -2.4607

 Normal termination of Gaussian 09 at Tue Mar  3 13:00:28 2020.
