                               Psi4 1.3.2 release

  ==> Input File <==

--------------------------------------------------------------------------
molecule {
0 1
 C   -8.502469   -3.671721   -0.127034
 C   -7.181153   -3.292700   -0.398018
 C   -6.753039   -1.978363   -0.121488
 C   -7.729495   -1.114003    0.432908
 N   -8.995381   -1.461317    0.699866
 C   -9.367130   -2.719037    0.421633
 C   -5.352573   -1.487239   -0.389895
 C   -4.311685   -2.263924   -0.925061
 C   -3.089933   -1.605960   -1.094745
 N   -2.872935   -0.330077   -0.789092
 C   -3.929958    0.341304   -0.285047
 N   -5.136561   -0.193712   -0.080342
 N   -3.731923    1.673542    0.034487
 C   -2.585395    2.550146    0.132197
 C   -2.807182    3.925540    0.452551
 C   -1.678470    4.756432    0.537894
 C   -0.367978    4.312792    0.335409
 C   -0.162986    2.962828    0.031575
 C   -1.271644    2.103908   -0.068898
 N    1.111895    2.353529   -0.212549
 C    2.388629    2.846995   -0.071761
 C    3.547763    1.940913   -0.440546
 C    3.480515    0.966283   -1.449924
 C    4.583569    0.154910   -1.725466
 C    5.795098    0.300862   -1.024048
 C    5.860297    1.306009   -0.040366
 C    4.762374    2.121377    0.242088
 C    6.988417   -0.616609   -1.296159
 N    7.089458   -1.891243   -0.562584
 C    6.159570   -2.990308   -0.905701
 C    4.885662   -3.054362   -0.024714
 N    5.151766   -3.080639    1.432225
 C    5.490385   -4.383282    2.016718
 C    6.048393   -1.950513    1.774479
 C    7.325902   -1.853779    0.899435
 O    2.614249    3.969700    0.351257
 C   -4.181110    4.526275    0.700419
 H   -8.854554   -4.677515   -0.335909
 H   -6.513498   -4.035831   -0.827107
 H   -7.468473   -0.087550    0.673024
 H  -10.402064   -2.969232    0.648751
 H   -4.409443   -3.307234   -1.198579
 H   -2.233111   -2.141088   -1.503709
 H   -4.629084    2.102988    0.203445
 H   -1.809257    5.811218    0.777074
 H    0.473574    4.989915    0.414448
 H   -1.118639    1.063216   -0.314884
 H    1.059960    1.366306   -0.419656
 H    2.560549    0.843223   -2.016052
 H    4.492989   -0.607129   -2.499504
 H    6.779200    1.454817    0.526177
 H    4.822310    2.894488    1.003927
 H    7.003688   -0.861063   -2.368358
 H    7.911290   -0.055774   -1.088118
 H    5.938004   -2.987791   -1.946830
 H    6.929346   -4.339615   -0.617474
 H    4.154175   -4.286194   -0.391994
 H    4.149105   -2.085630   -0.258604
 H    6.447310   -4.751589    1.630574
 H    4.709473   -5.116331    1.784804
 H    5.558748   -4.301160    3.107465
 H    6.354230   -2.018975    2.972151
 H    5.286072   -0.739184    1.587942
 H    8.171371   -3.141701    1.259452
 H    7.944180   -0.985658    1.169964
 H   -4.694964    4.025074    1.532939
 H   -4.823803    4.438191   -0.186888
 H   -4.143871    5.594387    0.955668
}
memory 20GB
set_num_threads(6)
psi4_io.set_default_path("/scratch/bdw2292")
set freeze_core True
E, wfn = energy('mp2/6-311++G**',return_wfn=True)
oeprop(wfn,"WIBERG_LOWDIN_INDICES")
clean()
--------------------------------------------------------------------------

    Molecular point group: c1

    Geometry (in Angstrom), charge = 0, multiplicity = 1:

       Center              X                  Y                   Z               Mass
    ------------   -----------------  -----------------  -----------------  -----------------
         C           -8.411052486184    -3.730562387941    -0.103307902492    12.000000000000
         C           -7.089736486184    -3.351541387941    -0.374291902492    12.000000000000
         C           -6.661622486184    -2.037204387941    -0.097761902492    12.000000000000
         C           -7.638078486184    -1.172844387941     0.456634097508    12.000000000000
         N           -8.903964486184    -1.520158387941     0.723592097508    14.003074004430
         C           -9.275713486184    -2.777878387941     0.445359097508    12.000000000000
         C           -5.261156486184    -1.546080387941    -0.366168902492    12.000000000000
         C           -4.220268486184    -2.322765387941    -0.901334902492    12.000000000000
         C           -2.998516486184    -1.664801387941    -1.071018902492    12.000000000000
         N           -2.781518486184    -0.388918387941    -0.765365902492    14.003074004430
         C           -3.838541486184     0.282462612059    -0.261320902492    12.000000000000
         N           -5.045144486184    -0.252553387941    -0.056615902492    14.003074004430
         N           -3.640506486184     1.614700612059     0.058213097508    14.003074004430
         C           -2.493978486184     2.491304612059     0.155923097508    12.000000000000
         C           -2.715765486184     3.866698612059     0.476277097508    12.000000000000
         C           -1.587053486184     4.697590612059     0.561620097508    12.000000000000
         C           -0.276561486184     4.253950612059     0.359135097508    12.000000000000
         C           -0.071569486184     2.903986612059     0.055301097508    12.000000000000
         C           -1.180227486184     2.045066612059    -0.045171902492    12.000000000000
         N            1.203311513816     2.294687612059    -0.188822902492    14.003074004430
         C            2.480045513816     2.788153612059    -0.048034902492    12.000000000000
         C            3.639179513816     1.882071612059    -0.416819902492    12.000000000000
         C            3.571931513816     0.907441612059    -1.426197902492    12.000000000000
         C            4.674985513816     0.096068612059    -1.701739902492    12.000000000000
         C            5.886514513816     0.242020612059    -1.000321902492    12.000000000000
         C            5.951713513816     1.247167612059    -0.016639902492    12.000000000000
         C            4.853790513816     2.062535612059     0.265814097508    12.000000000000
         C            7.079833513816    -0.675450387941    -1.272432902492    12.000000000000
         N            7.180874513816    -1.950084387941    -0.538857902492    14.003074004430
         C            6.250986513816    -3.049149387941    -0.881974902492    12.000000000000
         C            4.977078513816    -3.113203387941    -0.000987902492    12.000000000000
         N            5.243182513816    -3.139480387941     1.455951097508    14.003074004430
         C            5.581801513816    -4.442123387941     2.040444097508    12.000000000000
         C            6.139809513816    -2.009354387941     1.798205097508    12.000000000000
         C            7.417318513816    -1.912620387941     0.923161097508    12.000000000000
         O            2.705665513816     3.910858612059     0.374983097508    15.994914619570
         C           -4.089693486184     4.467433612059     0.724145097508    12.000000000000
         H           -8.763137486184    -4.736356387942    -0.312182902492     1.007825032230
         H           -6.422081486184    -4.094672387941    -0.803380902492     1.007825032230
         H           -7.377056486184    -0.146391387941     0.696750097508     1.007825032230
         H          -10.310647486184    -3.028073387941     0.672477097508     1.007825032230
         H           -4.318026486184    -3.366075387941    -1.174852902492     1.007825032230
         H           -2.141694486184    -2.199929387941    -1.479982902492     1.007825032230
         H           -4.537667486184     2.044146612058     0.227171097508     1.007825032230
         H           -1.717840486184     5.752376612059     0.800800097508     1.007825032230
         H            0.564990513816     4.931073612059     0.438174097508     1.007825032230
         H           -1.027222486184     1.004374612059    -0.291157902492     1.007825032230
         H            1.151376513816     1.307464612059    -0.395929902492     1.007825032230
         H            2.651965513816     0.784381612059    -1.992325902492     1.007825032230
         H            4.584405513816    -0.665970387941    -2.475777902492     1.007825032230
         H            6.870616513816     1.395975612059     0.549903097508     1.007825032230
         H            4.913726513816     2.835646612059     1.027653097508     1.007825032230
         H            7.095104513816    -0.919904387941    -2.344631902492     1.007825032230
         H            8.002706513816    -0.114615387941    -1.064391902492     1.007825032230
         H            6.029420513816    -3.046632387941    -1.923103902492     1.007825032230
         H            7.020762513816    -4.398456387941    -0.593747902492     1.007825032230
         H            4.245591513816    -4.345035387941    -0.368267902492     1.007825032230
         H            4.240521513816    -2.144471387941    -0.234877902492     1.007825032230
         H            6.538726513816    -4.810430387941     1.654300097508     1.007825032230
         H            4.800889513816    -5.175172387941     1.808530097508     1.007825032230
         H            5.650164513816    -4.360001387941     3.131191097508     1.007825032230
         H            6.445646513816    -2.077816387941     2.995877097508     1.007825032230
         H            5.377488513816    -0.798025387941     1.611668097508     1.007825032230
         H            8.262787513816    -3.200542387941     1.283178097508     1.007825032230
         H            8.035596513816    -1.044499387941     1.193690097508     1.007825032230
         H           -4.603547486184     3.966232612059     1.556665097508     1.007825032230
         H           -4.732386486184     4.379349612059    -0.163161902492     1.007825032230
         H           -4.052454486184     5.535545612059     0.979394097508     1.007825032230

  Charge       = 0
  Multiplicity = 1
  Basis Set: 6-311++G**
    Blend: 6-311++G**
  Basis Set: (6-311++G** AUX)
    Blend: AUG-CC-PVTZ-JKFIT

    Orbital Energies [Eh]
    ---------------------

    Doubly Occupied:

       1A    -20.525591     2A    -15.606109     3A    -15.602748
       4A    -15.577951     5A    -15.576737     6A    -15.571410
       7A    -15.569012     8A    -15.559927     9A    -11.374312
      10A    -11.369457    11A    -11.332879    12A    -11.315272
      13A    -11.314193    14A    -11.311980    15A    -11.311725
      16A    -11.309705    17A    -11.304148    18A    -11.293814
      19A    -11.292995    20A    -11.291243    21A    -11.286829
      22A    -11.282859    23A    -11.273080    24A    -11.266397
      25A    -11.266014    26A    -11.265134    27A    -11.258035
      28A    -11.257472    29A    -11.257007    30A    -11.253950
      31A    -11.250143    32A    -11.247449    33A    -11.247091
      34A    -11.239456    35A    -11.235909    36A    -11.231398
      37A    -11.224568    38A     -1.391862    39A     -1.343194
      40A     -1.269312    41A     -1.252782    42A     -1.251893
      43A     -1.240717    44A     -1.207723    45A     -1.205482
      46A     -1.170719    47A     -1.140990    48A     -1.109476
      49A     -1.072742    50A     -1.065288    51A     -1.043549
      52A     -1.038452    53A     -1.033386    54A     -1.007846
      55A     -1.003293    56A     -0.983242    57A     -0.948328
      58A     -0.932028    59A     -0.920401    60A     -0.901412
      61A     -0.871490    62A     -0.865673    63A     -0.856325
      64A     -0.851152    65A     -0.840220    66A     -0.837433
      67A     -0.824057    68A     -0.810395    69A     -0.778870
      70A     -0.754369    71A     -0.738719    72A     -0.735140
      73A     -0.717625    74A     -0.710422    75A     -0.700853
      76A     -0.685809    77A     -0.676394    78A     -0.667124
      79A     -0.663410    80A     -0.654840    81A     -0.651987
      82A     -0.650562    83A     -0.639443    84A     -0.634145
      85A     -0.625981    86A     -0.619425    87A     -0.613345
      88A     -0.611255    89A     -0.608075    90A     -0.604137
      91A     -0.600754    92A     -0.594257    93A     -0.592061
      94A     -0.591847    95A     -0.584683    96A     -0.583647
      97A     -0.582201    98A     -0.580203    99A     -0.568872
     100A     -0.553964   101A     -0.548860   102A     -0.544812
     103A     -0.537373   104A     -0.536128   105A     -0.530881
     106A     -0.525478   107A     -0.514949   108A     -0.512355
     109A     -0.511265   110A     -0.509083   111A     -0.505291
     112A     -0.500729   113A     -0.483077   114A     -0.482909
     115A     -0.456411   116A     -0.448958   117A     -0.434113
     118A     -0.433073   119A     -0.429262   120A     -0.426539
     121A     -0.411352   122A     -0.398532   123A     -0.394439
     124A     -0.385857   125A     -0.371771   126A     -0.354760
     127A     -0.350394   128A     -0.339405   129A     -0.317541
     130A     -0.314624   131A     -0.289604

  @DF-RHF Final Energy: -1572.32320676707309

   => Energetics <=

    Nuclear Repulsion Energy =           3523.8019082303667346
    One-Electron Energy =               -9145.4120296451728791
    Two-Electron Energy =                4049.2869146477323739
    Total Energy =                      -1572.3232067670733159

  Dipole Moment: [D]
     X:    -0.7661      Y:    -4.9112      Z:    -2.2593     Total:     5.4600

  Basis Set: (6-311++G** AUX)
    Blend: AUG-CC-PVTZ-RI
	 Reference Energy          =   -1572.3232067670730885 [Eh]
	 Singles Energy            =      -0.0000000000000000 [Eh]
	 Same-Spin Energy          =      -1.4682535070974885 [Eh]
	 Opposite-Spin Energy      =      -4.0455313263453139 [Eh]
	 Correlation Energy        =      -5.5137848334428021 [Eh]
	 Total Energy              =   -1577.8369916005158302 [Eh]

	 ================> DF-SCS-MP2 Energies <==================
	-----------------------------------------------------------
	 SCS Same-Spin Scale       =       0.3333333333333333 [-]
	 SCS Opposite-Spin Scale   =       1.2000000000000000 [-]
	 SCS Same-Spin Energy      =      -0.4894178356991628 [Eh]
	 SCS Opposite-Spin Energy  =      -4.8546375916143765 [Eh]
	 SCS Correlation Energy    =      -5.3440554273135392 [Eh]
	 SCS Total Energy          =   -1577.6672621943866943 [Eh]
	-----------------------------------------------------------

*** Psi4 exiting successfully. Buy a developer a beer!
