 Gaussian 09, Revision A.02,
 Gaussian 09:  EM64L-G09RevA.02 11-Jun-2009

 --------------------------------------------------
 #P opt=(,maxcycle=400) wB97XD/6-31G* MaxDisk=100GB
 --------------------------------------------------

 --------------------------------------------------------------
 MOLECULE0 Rotatable Bond Optimization on node37.bme.utexas.edu
 --------------------------------------------------------------
 Symbolic Z-matrix:
 Charge =  0 Multiplicity = 1

 SCF Done:  E(RwB97XD) =  -1581.50559291     A.U. after   16 cycles
 SCF Done:  E(RwB97XD) =  -1581.56598879     A.U. after   13 cycles
 SCF Done:  E(RwB97XD) =  -1581.66641726     A.U. after   14 cycles
 SCF Done:  E(RwB97XD) =  -1581.72100403     A.U. after   14 cycles
 SCF Done:  E(RwB97XD) =  -1581.74551292     A.U. after   14 cycles
 SCF Done:  E(RwB97XD) =  -1581.74972360     A.U. after   17 cycles
 SCF Done:  E(RwB97XD) =  -1581.75047696     A.U. after   15 cycles
 SCF Done:  E(RwB97XD) =  -1581.75190121     A.U. after   15 cycles
 SCF Done:  E(RwB97XD) =  -1581.75478871     A.U. after   14 cycles
 SCF Done:  E(RwB97XD) =  -1581.75508429     A.U. after   14 cycles
 SCF Done:  E(RwB97XD) =  -1581.75575832     A.U. after   17 cycles
 SCF Done:  E(RwB97XD) =  -1581.75587597     A.U. after   17 cycles
 SCF Done:  E(RwB97XD) =  -1581.75588235     A.U. after   12 cycles
 SCF Done:  E(RwB97XD) =  -1581.75590158     A.U. after   12 cycles
 SCF Done:  E(RwB97XD) =  -1581.75590669     A.U. after   10 cycles
 SCF Done:  E(RwB97XD) =  -1581.75590774     A.U. after    9 cycles
 SCF Done:  E(RwB97XD) =  -1581.75590875     A.U. after    8 cycles
 SCF Done:  E(RwB97XD) =  -1581.75590922     A.U. after    8 cycles
 SCF Done:  E(RwB97XD) =  -1581.75590937     A.U. after    8 cycles
 SCF Done:  E(RwB97XD) =  -1581.75590944     A.U. after    6 cycles
 Optimization completed.
    -- Stationary point found.

                         Standard orientation:
 ---------------------------------------------------------------------
 Center     Atomic      Atomic             Coordinates (Angstroms)
 Number     Number       Type             X           Y           Z
 ---------------------------------------------------------------------
      1          6           0        8.514955   -0.752132   -2.313350
      2          6           0        7.904291    0.349458   -1.730112
      3          6           0        6.627307    0.209599   -1.185467
      4          6           0        6.032507   -1.057298   -1.253007
      5          7           0        6.607182   -2.122524   -1.809563
      6          6           0        7.826494   -1.960885   -2.328791
      7          6           0        5.899655    1.333774   -0.545573
      8          6           0        6.268675    2.670011   -0.708349
      9          6           0        5.493366    3.611134   -0.040431
     10          7           0        4.448771    3.299816    0.717128
     11          6           0        4.172442    1.984740    0.793103
     12          7           0        4.843057    0.996254    0.199036
     13          7           0        3.092457    1.657850    1.565288
     14          6           0        2.490111    0.373083    1.630800
     15          6           0        3.144271   -0.708819    2.235995
     16          6           0        2.454291   -1.920485    2.277195
     17          6           0        1.168475   -2.081086    1.775191
     18          6           0        0.526397   -0.985230    1.195665
     19          6           0        1.201938    0.233354    1.122935
     20          7           0       -0.767984   -1.037841    0.643504
     21          6           0       -1.690802   -2.051465    0.722026
     22          6           0       -2.979242   -1.767714    0.003724
     23          6           0       -3.056434   -0.981248   -1.148366
     24          6           0       -4.283167   -0.761721   -1.763877
     25          6           0       -5.457905   -1.302667   -1.239336
     26          6           0       -5.363770   -2.121797   -0.111508
     27          6           0       -4.141217   -2.357819    0.502139
     28          6           0       -6.810113   -0.989666   -1.863685
     29          7           0       -7.512472    0.197935   -1.407303
     30          6           0       -6.987613    1.495280   -1.816298
     31          6           0       -6.025092    2.127449   -0.796239
     32          7           0       -6.576286    2.180612    0.554768
     33          6           0       -7.584526    3.209717    0.738556
     34          6           0       -7.011497    0.847648    0.965027
     35          6           0       -7.991778    0.202640   -0.029840
     36          8           0       -1.514729   -3.093606    1.330609
     37          6           0        4.518898   -0.580690    2.830548
     38          1           0        9.508252   -0.678866   -2.743395
     39          1           0        8.428740    1.299200   -1.686097
     40          1           0        5.041661   -1.199296   -0.830408
     41          1           0        8.275926   -2.845006   -2.775834
     42          1           0        7.095644    2.978618   -1.334792
     43          1           0        5.720342    4.672266   -0.124244
     44          1           0        2.537443    2.454996    1.840962
     45          1           0        2.937578   -2.777395    2.739279
     46          1           0        0.659626   -3.031701    1.843821
     47          1           0        0.730585    1.093746    0.652090
     48          1           0       -1.097484   -0.171988    0.243860
     49          1           0       -2.155986   -0.569799   -1.597705
     50          1           0       -4.328631   -0.159241   -2.668313
     51          1           0       -6.263962   -2.577652    0.294198
     52          1           0       -4.066193   -3.001869    1.372219
     53          1           0       -6.685449   -0.893950   -2.949296
     54          1           0       -7.477913   -1.844542   -1.698374
     55          1           0       -6.495149    1.387312   -2.789554
     56          1           0       -7.841207    2.172502   -1.968079
     57          1           0       -5.762279    3.145131   -1.110226
     58          1           0       -5.097239    1.545014   -0.752399
     59          1           0       -8.505743    3.086752    0.142472
     60          1           0       -7.151271    4.182982    0.483604
     61          1           0       -7.874649    3.239831    1.794506
     62          1           0       -7.474700    0.917930    1.956522
     63          1           0       -6.116926    0.221438    1.061841
     64          1           0       -8.944041    0.752942   -0.004814
     65          1           0       -8.215946   -0.827308    0.270170
     66          1           0        4.652504    0.397513    3.303597
     67          1           0        5.286353   -0.672085    2.054710
     68          1           0        4.689352   -1.356323    3.582768
 ---------------------------------------------------------------------

 The electronic state is 1-A.
 Alpha  occ. eigenvalues --  -19.24202 -14.49456 -14.47987 -14.45090 -14.44939
 Alpha  occ. eigenvalues --  -14.44868 -14.44066 -14.43494 -10.41026 -10.40719
 Alpha  occ. eigenvalues --  -10.36658 -10.35417 -10.34757 -10.34064 -10.33887
 Alpha  occ. eigenvalues --  -10.33415 -10.32979 -10.32882 -10.32261 -10.32015
 Alpha  occ. eigenvalues --  -10.31936 -10.31743 -10.31634 -10.31614 -10.31550
 Alpha  occ. eigenvalues --  -10.31275 -10.31154 -10.31120 -10.31010 -10.30974
 Alpha  occ. eigenvalues --  -10.30938 -10.30854 -10.30419 -10.30305 -10.29546
 Alpha  occ. eigenvalues --  -10.29044 -10.28099  -1.14402  -1.11337  -1.04798
 Alpha  occ. eigenvalues --   -1.04573  -1.04274  -1.03283  -0.99996  -0.99769
 Alpha  occ. eigenvalues --   -0.96991  -0.94706  -0.91955  -0.88813  -0.88433
 Alpha  occ. eigenvalues --   -0.86444  -0.86302  -0.85942  -0.85391  -0.83601
 Alpha  occ. eigenvalues --   -0.82313  -0.79435  -0.77930  -0.77162  -0.75301
 Alpha  occ. eigenvalues --   -0.73697  -0.73258  -0.72592  -0.71487  -0.71200
 Alpha  occ. eigenvalues --   -0.71058  -0.70387  -0.68237  -0.66363  -0.64676
 Alpha  occ. eigenvalues --   -0.64147  -0.63690  -0.62371  -0.60954  -0.59679
 Alpha  occ. eigenvalues --   -0.58670  -0.57754  -0.57248  -0.56358  -0.56254
 Alpha  occ. eigenvalues --   -0.55484  -0.55383  -0.55195  -0.54806  -0.54400
 Alpha  occ. eigenvalues --   -0.53999  -0.53783  -0.53143  -0.53107  -0.52737
 Alpha  occ. eigenvalues --   -0.51724  -0.51410  -0.51046  -0.50850  -0.50526
 Alpha  occ. eigenvalues --   -0.50115  -0.49622  -0.49179  -0.48966  -0.48800
 Alpha  occ. eigenvalues --   -0.47155  -0.46926  -0.46717  -0.46485  -0.45694
 Alpha  occ. eigenvalues --   -0.45283  -0.45055  -0.44961  -0.44305  -0.43869
 Alpha  occ. eigenvalues --   -0.43036  -0.42966  -0.42055  -0.42003  -0.41391
 Alpha  occ. eigenvalues --   -0.41367  -0.40537  -0.39723  -0.37891  -0.36577
 Alpha  occ. eigenvalues --   -0.34405  -0.34341  -0.33874  -0.33856  -0.32879
 Alpha  occ. eigenvalues --   -0.32693  -0.32258  -0.31267  -0.29713  -0.28104
 Alpha  occ. eigenvalues --   -0.25403
 Alpha virt. eigenvalues --    0.00636   0.02528   0.04278   0.05490   0.05901
 Alpha virt. eigenvalues --    0.07530   0.08052   0.09836   0.13829   0.15091
 Alpha virt. eigenvalues --    0.15879   0.16981   0.17108   0.18536   0.18750

 Mulliken atomic charges:
              1
     1  C   -0.196747
     2  C   -0.158543
     3  C    0.025388
     4  C    0.003974
     5  N   -0.421722
     6  C    0.024791
     7  C    0.289175
     8  C   -0.248279
     9  C    0.042324
    10  N   -0.490969
    11  C    0.667688
    12  N   -0.540967
    13  N   -0.760379
    14  C    0.248604
    15  C    0.163420
    16  C   -0.245043
    17  C   -0.182131
    18  C    0.354032
    19  C   -0.268667
    20  N   -0.767668
    21  C    0.596994
    22  C    0.016766
    23  C   -0.209569
    24  C   -0.219287
    25  C    0.159272
    26  C   -0.222201
    27  C   -0.175604
    28  C   -0.264184
    29  N   -0.380618
    30  C   -0.185013
    31  C   -0.181076
    32  N   -0.385747
    33  C   -0.350943
    34  C   -0.182272
    35  C   -0.186970
    36  O   -0.510279
    37  C   -0.571357
    38  H    0.179770
    39  H    0.179440
    40  H    0.213015
    41  H    0.179164
    42  H    0.175734
    43  H    0.183938
    44  H    0.361378
    45  H    0.167191
    46  H    0.220104
    47  H    0.156533
    48  H    0.355386
    49  H    0.173397
    50  H    0.166160
    51  H    0.168360
    52  H    0.202038
    53  H    0.171138
    54  H    0.172270
    55  H    0.151468
    56  H    0.161786
    57  H    0.152633
    58  H    0.162319
    59  H    0.136505
    60  H    0.167018
    61  H    0.168730
    62  H    0.155030
    63  H    0.169043
    64  H    0.161750
    65  H    0.154255
    66  H    0.178369
    67  H    0.199441
    68  H    0.170444
 Sum of Mulliken atomic charges =   0.00000

 Dipole moment (field-independent basis, Debye):
    X=              0.3058    Y=              4.3831    Z=             -2.2508  Tot=              4.9367
 Quadrupole moment (field-independent basis, Debye-Ang):
   XX=           -167.8787   YY=           -220.7032   ZZ=           -212.5555
   XY=              9.3744   XZ=             -8.2527   YZ=             -4.9585

 Normal termination of Gaussian 09 at Tue Mar  3 11:26:58 2020.
