                               Psi4 1.3.2 release

  ==> Input File <==

--------------------------------------------------------------------------
molecule {
0 1
 C   -0.289971    4.460338   -1.154458
 C    1.046343    4.368046   -0.742216
 C    1.668437    3.107460   -0.653822
 C    0.874146    1.999099   -1.038316
 N   -0.401021    2.067303   -1.443065
 C   -0.968349    3.282741   -1.488709
 C    3.088969    2.902424   -0.189619
 C    4.027331    3.922849    0.034803
 C    5.299413    3.502849    0.442838
 N    5.644331    2.231811    0.640296
 C    4.675178    1.319737    0.423845
 N    3.440129    1.620476    0.018419
 N    5.032446    0.001018    0.654152
 C    4.342094   -1.253905    0.479304
 C    5.079330   -2.476864    0.463527
 C    4.353508   -3.665085    0.268873
 C    2.965696   -3.716331    0.089247
 C    2.252002   -2.514625    0.128619
 C    2.951811   -1.314386    0.325498
 N    0.841004   -2.367709   -0.045420
 C   -0.140713   -3.253906   -0.425036
 C   -1.489318   -2.644874   -0.762868
 C   -1.620534   -1.398609   -1.399736
 C   -2.882217   -0.844056   -1.618091
 C   -4.054789   -1.505464   -1.209625
 C   -3.911516   -2.781176   -0.628915
 C   -2.653230   -3.356941   -0.431556
 C   -5.418182   -0.824679   -1.341184
 N   -5.853620    0.114111   -0.291416
 C   -5.246722    1.465001   -0.230911
 C   -4.028410    1.589664    0.721553
 N   -4.291988    1.106305    2.098779
 C   -4.966975    2.042161    3.005185
 C   -4.852494   -0.265523    2.025730
 C   -6.073290   -0.403477    1.078655
 O    0.035794   -4.460945   -0.475747
 C    6.588285   -2.541647    0.630323
 H   -0.794065    5.420291   -1.214480
 H    1.570986    5.280249   -0.468492
 H    1.296610    0.998980   -1.045401
 H   -2.006269    3.301562   -1.817707
 H    3.832050    4.978476   -0.108659
 H    6.105183    4.212802    0.627720
 H    6.005336   -0.041706    0.917494
 H    4.889257   -4.613048    0.243632
 H    2.444773   -4.651189   -0.077051
 H    2.398958   -0.391368    0.373659
 H    0.515459   -1.417647    0.065791
 H   -0.733986   -0.845513   -1.700634
 H   -2.941528    0.144054   -2.074392
 H   -4.794802   -3.327767   -0.300150
 H   -2.553192   -4.339402    0.023168
 H   -5.446718   -0.273773   -2.291777
 H   -6.182910   -1.612058   -1.401774
 H   -4.988618    1.837060   -1.285284
 H   -6.303631    2.385935    0.286581
 H   -3.634398    2.880668    0.784601
 H   -3.067818    0.943194    0.282806
 H   -5.986889    2.252625    2.664108
 H   -4.410100    2.984721    3.058962
 H   -5.012367    1.622342    4.016686
 H   -5.159777   -0.655790    3.207305
 H   -3.799910   -1.116550    1.558756
 H   -7.181748    0.379486    1.664065
 H   -6.450759   -1.550904    1.037238
 H    6.923493   -2.160548    1.605473
 H    7.095695   -1.952202   -0.138522
 H    6.977684   -3.559857    0.548784
}
memory 20GB
set_num_threads(6)
psi4_io.set_default_path("/scratch/bdw2292")
set freeze_core True
E, wfn = energy('mp2/6-311++G**',return_wfn=True)
oeprop(wfn,"WIBERG_LOWDIN_INDICES")
clean()
--------------------------------------------------------------------------

    Molecular point group: c1

    Geometry (in Angstrom), charge = 0, multiplicity = 1:

       Center              X                  Y                   Z               Mass
    ------------   -----------------  -----------------  -----------------  -----------------
         C           -0.367200916805     4.474392919764    -1.126051895889    12.000000000000
         C            0.969113083195     4.382100919764    -0.713809895889    12.000000000000
         C            1.591207083195     3.121514919764    -0.625415895889    12.000000000000
         C            0.796916083195     2.013153919764    -1.009909895889    12.000000000000
         N           -0.478250916805     2.081357919764    -1.414658895889    14.003074004430
         C           -1.045578916805     3.296795919764    -1.460302895889    12.000000000000
         C            3.011739083195     2.916478919764    -0.161212895889    12.000000000000
         C            3.950101083195     3.936903919764     0.063209104111    12.000000000000
         C            5.222183083195     3.516903919764     0.471244104111    12.000000000000
         N            5.567101083195     2.245865919764     0.668702104111    14.003074004430
         C            4.597948083195     1.333791919764     0.452251104111    12.000000000000
         N            3.362899083195     1.634530919764     0.046825104111    14.003074004430
         N            4.955216083195     0.015072919764     0.682558104111    14.003074004430
         C            4.264864083195    -1.239850080236     0.507710104111    12.000000000000
         C            5.002100083195    -2.462809080236     0.491933104111    12.000000000000
         C            4.276278083195    -3.651030080236     0.297279104111    12.000000000000
         C            2.888466083195    -3.702276080236     0.117653104111    12.000000000000
         C            2.174772083195    -2.500570080236     0.157025104111    12.000000000000
         C            2.874581083195    -1.300331080236     0.353904104111    12.000000000000
         N            0.763774083195    -2.353654080236    -0.017013895889    14.003074004430
         C           -0.217942916805    -3.239851080236    -0.396629895889    12.000000000000
         C           -1.566547916805    -2.630819080236    -0.734461895889    12.000000000000
         C           -1.697763916805    -1.384554080236    -1.371329895889    12.000000000000
         C           -2.959446916805    -0.830001080236    -1.589684895889    12.000000000000
         C           -4.132018916805    -1.491409080236    -1.181218895889    12.000000000000
         C           -3.988745916805    -2.767121080236    -0.600508895889    12.000000000000
         C           -2.730459916805    -3.342886080236    -0.403149895889    12.000000000000
         C           -5.495411916805    -0.810624080236    -1.312777895889    12.000000000000
         N           -5.930849916805     0.128165919764    -0.263009895889    14.003074004430
         C           -5.323951916805     1.479055919764    -0.202504895889    12.000000000000
         C           -4.105639916805     1.603718919764     0.749959104111    12.000000000000
         N           -4.369217916805     1.120359919764     2.127185104111    14.003074004430
         C           -5.044204916805     2.056215919764     3.033591104111    12.000000000000
         C           -4.929723916805    -0.251468080236     2.054136104111    12.000000000000
         C           -6.150519916805    -0.389422080236     1.107061104111    12.000000000000
         O           -0.041435916805    -4.446890080236    -0.447340895889    15.994914619570
         C            6.511055083195    -2.527592080236     0.658729104111    12.000000000000
         H           -0.871294916805     5.434345919764    -1.186073895889     1.007825032230
         H            1.493756083195     5.294303919764    -0.440085895889     1.007825032230
         H            1.219380083195     1.013034919764    -1.016994895889     1.007825032230
         H           -2.083498916805     3.315616919764    -1.789300895889     1.007825032230
         H            3.754820083195     4.992530919764    -0.080252895889     1.007825032230
         H            6.027953083195     4.226856919764     0.656126104111     1.007825032230
         H            5.928106083195    -0.027651080236     0.945900104111     1.007825032230
         H            4.812027083195    -4.598993080236     0.272038104111     1.007825032230
         H            2.367543083195    -4.637134080236    -0.048644895889     1.007825032230
         H            2.321728083195    -0.377313080236     0.402065104111     1.007825032230
         H            0.438229083195    -1.403592080236     0.094197104111     1.007825032230
         H           -0.811215916805    -0.831458080236    -1.672227895889     1.007825032230
         H           -3.018757916805     0.158108919764    -2.045985895889     1.007825032230
         H           -4.872031916805    -3.313712080236    -0.271743895889     1.007825032230
         H           -2.630421916805    -4.325347080236     0.051574104111     1.007825032230
         H           -5.523947916805    -0.259718080236    -2.263370895889     1.007825032230
         H           -6.260139916805    -1.598003080236    -1.373367895889     1.007825032230
         H           -5.065847916805     1.851114919764    -1.256877895889     1.007825032230
         H           -6.380860916805     2.399989919764     0.314987104111     1.007825032230
         H           -3.711627916805     2.894722919764     0.813007104111     1.007825032230
         H           -3.145047916805     0.957248919764     0.311212104111     1.007825032230
         H           -6.064118916805     2.266679919764     2.692514104111     1.007825032230
         H           -4.487329916805     2.998775919764     3.087368104111     1.007825032230
         H           -5.089596916805     1.636396919764     4.045092104111     1.007825032230
         H           -5.237006916805    -0.641735080236     3.235711104111     1.007825032230
         H           -3.877139916805    -1.102495080236     1.587162104111     1.007825032230
         H           -7.258977916805     0.393540919764     1.692471104111     1.007825032230
         H           -6.527988916805    -1.536849080236     1.065644104111     1.007825032230
         H            6.846263083195    -2.146493080236     1.633879104111     1.007825032230
         H            7.018465083195    -1.938147080236    -0.110115895889     1.007825032230
         H            6.900454083195    -3.545802080236     0.577190104111     1.007825032230

  Charge       = 0
  Multiplicity = 1
  Basis Set: 6-311++G**
    Blend: 6-311++G**
  Basis Set: (6-311++G** AUX)
    Blend: AUG-CC-PVTZ-JKFIT

    Orbital Energies [Eh]
    ---------------------

    Doubly Occupied:

       1A    -20.522236     2A    -15.604289     3A    -15.601087
       4A    -15.587332     5A    -15.573905     6A    -15.569641
       7A    -15.568780     8A    -15.554146     9A    -11.374987
      10A    -11.364437    11A    -11.334728    12A    -11.314119
      13A    -11.312662    14A    -11.308755    15A    -11.308718
      16A    -11.301905    17A    -11.301729    18A    -11.301132
      19A    -11.298847    20A    -11.292416    21A    -11.289886
      22A    -11.280789    23A    -11.277944    24A    -11.266225
      25A    -11.257127    26A    -11.256230    27A    -11.252914
      28A    -11.252859    29A    -11.250205    30A    -11.247297
      31A    -11.245897    32A    -11.245788    33A    -11.244747
      34A    -11.240144    35A    -11.233865    36A    -11.230127
      37A    -11.225273    38A     -1.386141    39A     -1.345156
      40A     -1.278813    41A     -1.251970    42A     -1.244684
      43A     -1.241892    44A     -1.209748    45A     -1.198916
      46A     -1.161740    47A     -1.139725    48A     -1.116355
      49A     -1.075640    50A     -1.059726    51A     -1.048660
      52A     -1.037522    53A     -1.023554    54A     -1.008065
      55A     -0.992557    56A     -0.976636    57A     -0.947118
      58A     -0.927731    59A     -0.926740    60A     -0.901107
      61A     -0.873204    62A     -0.865815    63A     -0.858386
      64A     -0.841881    65A     -0.834714    66A     -0.826851
      67A     -0.825143    68A     -0.805027    69A     -0.778165
      70A     -0.754553    71A     -0.738931    72A     -0.730793
      73A     -0.722164    74A     -0.703194    75A     -0.696976
      76A     -0.682942    77A     -0.673285    78A     -0.667516
      79A     -0.658233    80A     -0.655944    81A     -0.652069
      82A     -0.642922    83A     -0.637297    84A     -0.630028
      85A     -0.622851    86A     -0.618258    87A     -0.612867
      88A     -0.607399    89A     -0.607089    90A     -0.603047
      91A     -0.600600    92A     -0.596661    93A     -0.591357
      94A     -0.587175    95A     -0.581545    96A     -0.580979
      97A     -0.579590    98A     -0.574403    99A     -0.564991
     100A     -0.561683   101A     -0.547709   102A     -0.545145
     103A     -0.530294   104A     -0.528753   105A     -0.525186
     106A     -0.522503   107A     -0.514581   108A     -0.509456
     109A     -0.508617   110A     -0.506162   111A     -0.502737
     112A     -0.494140   113A     -0.484712   114A     -0.481294
     115A     -0.455044   116A     -0.451534   117A     -0.443745
     118A     -0.435762   119A     -0.427549   120A     -0.425319
     121A     -0.414434   122A     -0.410066   123A     -0.400546
     124A     -0.382017   125A     -0.374009   126A     -0.346608
     127A     -0.345180   128A     -0.342101   129A     -0.315182
     130A     -0.312447   131A     -0.290322

  @DF-RHF Final Energy: -1572.36585861344179

   => Energetics <=

    Nuclear Repulsion Energy =           3806.9002285672531798
    One-Electron Energy =               -9712.1061003944596450
    Two-Electron Energy =                4332.8400132137649052
    Total Energy =                      -1572.3658586134415600

  Dipole Moment: [D]
     X:     0.7599      Y:     6.8461      Z:    -0.0409     Total:     6.8883

  Basis Set: (6-311++G** AUX)
    Blend: AUG-CC-PVTZ-RI
	 Reference Energy          =   -1572.3658586134417874 [Eh]
	 Singles Energy            =      -0.0000000000000000 [Eh]
	 Same-Spin Energy          =      -1.4726082821521405 [Eh]
	 Opposite-Spin Energy      =      -4.0496613443614136 [Eh]
	 Correlation Energy        =      -5.5222696265135536 [Eh]
	 Total Energy              =   -1577.8881282399554493 [Eh]

	 ================> DF-SCS-MP2 Energies <==================
	-----------------------------------------------------------
	 SCS Same-Spin Scale       =       0.3333333333333333 [-]
	 SCS Opposite-Spin Scale   =       1.2000000000000000 [-]
	 SCS Same-Spin Energy      =      -0.4908694273840468 [Eh]
	 SCS Opposite-Spin Energy  =      -4.8595936132336961 [Eh]
	 SCS Correlation Energy    =      -5.3504630406177434 [Eh]
	 SCS Total Energy          =   -1577.7163216540595840 [Eh]
	-----------------------------------------------------------

*** Psi4 exiting successfully. Buy a developer a beer!
