                               Psi4 1.3.2 release

  ==> Input File <==

--------------------------------------------------------------------------
molecule {
0 1
 C   -1.929100    5.244053   -0.783344
 C   -3.185900    4.625697   -0.822063
 C   -3.300509    3.243048   -0.572807
 C   -2.089696    2.570123   -0.274940
 N   -0.881441    3.144941   -0.226831
 C   -0.810511    4.459384   -0.483247
 C   -4.614856    2.501810   -0.584696
 C   -5.876230    3.092506   -0.766178
 C   -6.969896    2.223759   -0.693218
 N   -6.876254    0.914605   -0.482663
 C   -5.624633    0.428652   -0.343494
 N   -4.514952    1.171354   -0.390253
 N   -5.548805   -0.940254   -0.143364
 C   -4.467836   -1.848751    0.143180
 C   -4.769040   -3.138503    0.677941
 C   -3.684681   -3.986558    0.957059
 C   -2.347591   -3.641783    0.731854
 C   -2.069262   -2.384326    0.185468
 C   -3.130050   -1.505953   -0.092278
 N   -0.762924   -1.881241   -0.114633
 C    0.484341   -2.381890    0.176046
 C    1.641140   -1.462783   -0.145086
 C    2.551425   -1.828270   -1.147760
 C    3.599047   -0.970155   -1.489595
 C    3.775654    0.267880   -0.841708
 C    2.862037    0.609197    0.174292
 C    1.811679   -0.241864    0.525059
 C    4.930061    1.199662   -1.214297
 N    6.222744    1.068709   -0.519789
 C    7.055875   -0.127018   -0.784409
 C    6.910814   -1.281085    0.241399
 N    7.060222   -0.864579    1.655349
 C    8.432811   -0.741678    2.160257
 C    6.158190    0.281131    1.911247
 C    6.304920    1.453293    0.907489
 O    0.674242   -3.493440    0.639988
 C   -6.180643   -3.614166    0.977750
 H   -1.819035    6.306865   -0.976876
 H   -4.051416    5.239729   -1.058155
 H   -2.101451    1.511640   -0.037953
 H    0.184230    4.899604   -0.438478
 H   -6.035275    4.152355   -0.922959
 H   -7.983988    2.606227   -0.806048
 H   -6.482129   -1.320889   -0.097594
 H   -3.874960   -4.973174    1.377950
 H   -1.541673   -4.327744    0.962990
 H   -2.926025   -0.532880   -0.511513
 H   -0.753353   -0.985819   -0.584090
 H    2.418741   -2.779985   -1.655933
 H    4.289846   -1.276792   -2.274628
 H    2.964772    1.556134    0.703856
 H    1.103859    0.040496    1.300577
 H    5.133059    1.082997   -2.288749
 H    4.594957    2.236942   -1.068116
 H    6.905700   -0.482595   -1.822875
 H    8.560333    0.333709   -0.678608
 H    7.681932   -2.154960    0.005314
 H    5.564690   -1.833621    0.102763
 H    8.970154    0.064883    1.648990
 H    8.977153   -1.680412    2.006508
 H    8.422386   -0.533024    3.236075
 H    6.383230    0.754098    3.189319
 H    4.815524   -0.211380    1.846182
 H    7.755037    2.016339    1.140226
 H    5.630792    2.254844    1.121921
 H   -6.777134   -3.702281    0.058886
 H   -6.706206   -2.919233    1.647801
 H   -6.207500   -4.597740    1.466490
}
memory 20GB
set_num_threads(6)
psi4_io.set_default_path("/scratch/bdw2292")
set freeze_core True
E, wfn = energy('mp2/6-311++G**',return_wfn=True)
oeprop(wfn,"WIBERG_LOWDIN_INDICES")
clean()
--------------------------------------------------------------------------

    Molecular point group: c1

    Geometry (in Angstrom), charge = 0, multiplicity = 1:

       Center              X                  Y                   Z               Mass
    ------------   -----------------  -----------------  -----------------  -----------------
         C           -1.778251475219     5.207529894282    -0.780362223737    12.000000000000
         C           -3.035051475219     4.589173894282    -0.819081223737    12.000000000000
         C           -3.149660475219     3.206524894282    -0.569825223737    12.000000000000
         C           -1.938847475219     2.533599894282    -0.271958223737    12.000000000000
         N           -0.730592475219     3.108417894282    -0.223849223737    14.003074004430
         C           -0.659662475219     4.422860894282    -0.480265223737    12.000000000000
         C           -4.464007475219     2.465286894282    -0.581714223737    12.000000000000
         C           -5.725381475219     3.055982894282    -0.763196223737    12.000000000000
         C           -6.819047475219     2.187235894282    -0.690236223737    12.000000000000
         N           -6.725405475219     0.878081894282    -0.479681223737    14.003074004430
         C           -5.473784475219     0.392128894282    -0.340512223737    12.000000000000
         N           -4.364103475219     1.134830894282    -0.387271223737    14.003074004430
         N           -5.397956475219    -0.976777105718    -0.140382223737    14.003074004430
         C           -4.316987475219    -1.885274105718     0.146161776263    12.000000000000
         C           -4.618191475219    -3.175026105718     0.680922776263    12.000000000000
         C           -3.533832475219    -4.023081105718     0.960040776263    12.000000000000
         C           -2.196742475219    -3.678306105718     0.734835776263    12.000000000000
         C           -1.918413475219    -2.420849105718     0.188449776263    12.000000000000
         C           -2.979201475219    -1.542476105718    -0.089296223737    12.000000000000
         N           -0.612075475219    -1.917764105718    -0.111651223737    14.003074004430
         C            0.635189524781    -2.418413105718     0.179027776263    12.000000000000
         C            1.791988524781    -1.499306105718    -0.142104223737    12.000000000000
         C            2.702273524781    -1.864793105718    -1.144778223737    12.000000000000
         C            3.749895524781    -1.006678105718    -1.486613223737    12.000000000000
         C            3.926502524781     0.231356894282    -0.838726223737    12.000000000000
         C            3.012885524781     0.572673894282     0.177273776263    12.000000000000
         C            1.962527524781    -0.278387105718     0.528040776263    12.000000000000
         C            5.080909524781     1.163138894282    -1.211315223737    12.000000000000
         N            6.373592524781     1.032185894282    -0.516807223737    14.003074004430
         C            7.206723524781    -0.163541105718    -0.781427223737    12.000000000000
         C            7.061662524781    -1.317608105718     0.244380776263    12.000000000000
         N            7.211070524781    -0.901102105718     1.658330776263    14.003074004430
         C            8.583659524781    -0.778201105718     2.163238776263    12.000000000000
         C            6.309038524781     0.244607894282     1.914228776263    12.000000000000
         C            6.455768524781     1.416769894282     0.910470776263    12.000000000000
         O            0.825090524781    -3.529963105718     0.642969776263    15.994914619570
         C           -6.029794475219    -3.650689105718     0.980731776263    12.000000000000
         H           -1.668186475219     6.270341894282    -0.973894223737     1.007825032230
         H           -3.900567475219     5.203205894282    -1.055173223737     1.007825032230
         H           -1.950602475219     1.475116894282    -0.034971223737     1.007825032230
         H            0.335078524781     4.863080894282    -0.435496223737     1.007825032230
         H           -5.884426475219     4.115831894282    -0.919977223737     1.007825032230
         H           -7.833139475219     2.569703894282    -0.803066223737     1.007825032230
         H           -6.331280475219    -1.357412105718    -0.094612223737     1.007825032230
         H           -3.724111475219    -5.009697105718     1.380931776263     1.007825032230
         H           -1.390824475219    -4.364267105718     0.965971776263     1.007825032230
         H           -2.775176475219    -0.569403105718    -0.508531223737     1.007825032230
         H           -0.602504475219    -1.022342105718    -0.581108223737     1.007825032230
         H            2.569589524781    -2.816508105718    -1.652951223737     1.007825032230
         H            4.440694524781    -1.313315105718    -2.271646223737     1.007825032230
         H            3.115620524781     1.519610894282     0.706837776263     1.007825032230
         H            1.254707524781     0.003972894282     1.303558776263     1.007825032230
         H            5.283907524781     1.046473894282    -2.285767223737     1.007825032230
         H            4.745805524781     2.200418894282    -1.065134223737     1.007825032230
         H            7.056548524781    -0.519118105718    -1.819893223737     1.007825032230
         H            8.711181524781     0.297185894282    -0.675626223737     1.007825032230
         H            7.832780524781    -2.191483105718     0.008295776263     1.007825032230
         H            5.715538524781    -1.870144105718     0.105744776263     1.007825032230
         H            9.121002524781     0.028359894282     1.651971776263     1.007825032230
         H            9.128001524781    -1.716935105718     2.009489776263     1.007825032230
         H            8.573234524781    -0.569547105718     3.239056776263     1.007825032230
         H            6.534078524781     0.717574894282     3.192300776263     1.007825032230
         H            4.966372524781    -0.247903105718     1.849163776263     1.007825032230
         H            7.905885524781     1.979815894282     1.143207776263     1.007825032230
         H            5.781640524781     2.218320894282     1.124902776263     1.007825032230
         H           -6.626285475219    -3.738804105718     0.061867776263     1.007825032230
         H           -6.555357475219    -2.955756105718     1.650782776263     1.007825032230
         H           -6.056651475219    -4.634263105718     1.469471776263     1.007825032230

  Charge       = 0
  Multiplicity = 1
  Basis Set: 6-311++G**
    Blend: 6-311++G**
  Basis Set: (6-311++G** AUX)
    Blend: AUG-CC-PVTZ-JKFIT

    Orbital Energies [Eh]
    ---------------------

    Doubly Occupied:

       1A    -20.526166     2A    -15.604402     3A    -15.603645
       4A    -15.583658     5A    -15.573565     6A    -15.571478
       7A    -15.569568     8A    -15.554703     9A    -11.375216
      10A    -11.365426    11A    -11.334063    12A    -11.315107
      13A    -11.313490    14A    -11.309167    15A    -11.304895
      16A    -11.302433    17A    -11.301358    18A    -11.298667
      19A    -11.298027    20A    -11.293810    21A    -11.287383
      22A    -11.279755    23A    -11.278466    24A    -11.263453
      25A    -11.258926    26A    -11.256015    27A    -11.253474
      28A    -11.252415    29A    -11.251628    30A    -11.248502
      31A    -11.248346    32A    -11.247879    33A    -11.243518
      34A    -11.240572    35A    -11.236064    36A    -11.232949
      37A    -11.225715    38A     -1.389862    39A     -1.344505
      40A     -1.275756    41A     -1.253301    42A     -1.245125
      43A     -1.242483    44A     -1.209293    45A     -1.199688
      46A     -1.163796    47A     -1.140561    48A     -1.114209
      49A     -1.074712    50A     -1.061430    51A     -1.047179
      52A     -1.038486    53A     -1.026143    54A     -1.008556
      55A     -0.996233    56A     -0.977139    57A     -0.946889
      58A     -0.926704    59A     -0.925218    60A     -0.900539
      61A     -0.871152    62A     -0.867548    63A     -0.856677
      64A     -0.845159    65A     -0.837188    66A     -0.832382
      67A     -0.825514    68A     -0.806573    69A     -0.779826
      70A     -0.753654    71A     -0.737844    72A     -0.732228
      73A     -0.720976    74A     -0.699968    75A     -0.696090
      76A     -0.682469    77A     -0.679311    78A     -0.666280
      79A     -0.661194    80A     -0.657022    81A     -0.652527
      82A     -0.647962    83A     -0.640835    84A     -0.629213
      85A     -0.623970    86A     -0.620696    87A     -0.612601
      88A     -0.607093    89A     -0.602184    90A     -0.601221
      91A     -0.599582    92A     -0.596726    93A     -0.593269
      94A     -0.591415    95A     -0.586507    96A     -0.581781
      97A     -0.579580    98A     -0.570458    99A     -0.564923
     100A     -0.559356   101A     -0.549063   102A     -0.542494
     103A     -0.537708   104A     -0.526694   105A     -0.525599
     106A     -0.520947   107A     -0.513554   108A     -0.510887
     109A     -0.507630   110A     -0.499812   111A     -0.498548
     112A     -0.491997   113A     -0.485643   114A     -0.481947
     115A     -0.460536   116A     -0.451485   117A     -0.439324
     118A     -0.430870   119A     -0.427594   120A     -0.423208
     121A     -0.414156   122A     -0.398426   123A     -0.386691
     124A     -0.378431   125A     -0.373257   126A     -0.345298
     127A     -0.344947   128A     -0.343189   129A     -0.315985
     130A     -0.308956   131A     -0.291175

  @DF-RHF Final Energy: -1572.31429177919426

   => Energetics <=

    Nuclear Repulsion Energy =           3660.7704597816400565
    One-Electron Energy =               -9419.7520840170072915
    Two-Electron Energy =                4186.6673324561734262
    Total Energy =                      -1572.3142917791938089

  Dipole Moment: [D]
     X:    -3.7520      Y:     6.0486      Z:    -2.3366     Total:     7.4915

  Basis Set: (6-311++G** AUX)
    Blend: AUG-CC-PVTZ-RI
	 Reference Energy          =   -1572.3142917791942637 [Eh]
	 Singles Energy            =      -0.0000000000000000 [Eh]
	 Same-Spin Energy          =      -1.4705707879610310 [Eh]
	 Opposite-Spin Energy      =      -4.0496922974536487 [Eh]
	 Correlation Energy        =      -5.5202630854146797 [Eh]
	 Total Energy              =   -1577.8345548646088901 [Eh]

	 ================> DF-SCS-MP2 Energies <==================
	-----------------------------------------------------------
	 SCS Same-Spin Scale       =       0.3333333333333333 [-]
	 SCS Opposite-Spin Scale   =       1.2000000000000000 [-]
	 SCS Same-Spin Energy      =      -0.4901902626536770 [Eh]
	 SCS Opposite-Spin Energy  =      -4.8596307569443784 [Eh]
	 SCS Correlation Energy    =      -5.3498210195980551 [Eh]
	 SCS Total Energy          =   -1577.6641127987923028 [Eh]
	-----------------------------------------------------------

*** Psi4 exiting successfully. Buy a developer a beer!
