                               Psi4 1.3.2 release

  ==> Input File <==

--------------------------------------------------------------------------
molecule {
0 1
 C   -2.963054    5.359358    0.073522
 C   -4.022264    4.449823   -0.030973
 C   -3.778290    3.063854    0.058039
 C   -2.426051    2.689625    0.252327
 N   -1.398494    3.546750    0.362065
 C   -1.674312    4.855258    0.270254
 C   -4.869559    2.022205   -0.016763
 C   -6.241055    2.333655   -0.057845
 C   -7.120767    1.248148   -0.061163
 N   -6.735062   -0.023280   -0.036119
 C   -5.402262   -0.235395   -0.016730
 N   -4.480424    0.729477   -0.008936
 N   -5.060502   -1.576929    0.002802
 C   -3.829712   -2.311231    0.103682
 C   -3.879800   -3.672015    0.536511
 C   -2.659674   -4.352025    0.664306
 C   -1.416122   -3.787029    0.364001
 C   -1.379230   -2.473521   -0.121718
 C   -2.584857   -1.756188   -0.220845
 N   -0.161103   -1.808323   -0.497756
 C    0.151152   -0.497745   -0.786190
 C    1.602757   -0.159463   -1.055148
 C    2.485960   -1.002126   -1.748786
 C    3.823411   -0.635851   -1.917500
 C    4.320573    0.584625   -1.421941
 C    3.409842    1.441961   -0.774332
 C    2.069597    1.087161   -0.604955
 C    5.799018    0.954337   -1.557540
 N    6.748530    0.527598   -0.515810
 C    7.112486   -0.904588   -0.418801
 C    6.258406   -1.719599    0.586892
 N    6.203586   -1.132257    1.947290
 C    7.337998   -1.417978    2.833210
 C    5.791248    0.288403    1.836730
 C    6.639681    1.118437    0.838193
 O   -0.680856    0.392385   -0.801354
 C   -5.170656   -4.391082    0.893360
 H   -3.130938    6.429981    0.003875
 H   -5.022123    4.844796   -0.193311
 H   -2.173061    1.638580    0.324661
 H   -0.815145    5.517912    0.361903
 H   -6.642155    3.339192   -0.055388
 H   -8.202147    1.380316   -0.076489
 H   -5.908461   -2.121250    0.048212
 H   -2.659622   -5.384017    1.013942
 H   -0.504298   -4.359547    0.485403
 H   -2.572471   -0.735492   -0.571023
 H    0.610577   -2.460102   -0.494257
 H    2.120462   -1.944573   -2.148666
 H    4.493397   -1.324185   -2.432445
 H    3.752037    2.397997   -0.379320
 H    1.373472    1.763131   -0.111030
 H    6.170719    0.552316   -2.510622
 H    5.874889    2.048828   -1.625214
 H    7.097106   -1.414313   -1.504399
 H    8.507366   -0.959980    0.040773
 H    6.732583   -2.965986    0.674461
 H    5.023604   -1.804698    0.154858
 H    8.259403   -0.966484    2.448526
 H    7.485319   -2.500509    2.922500
 H    7.143334   -1.022998    3.836894
 H    5.830408    0.836383    3.024067
 H    4.459087    0.292435    1.425886
 H    8.010346    1.202022    1.383699
 H    6.239327    2.232431    0.771629
 H   -5.862430   -4.467817    0.042367
 H   -5.701675   -3.869535    1.694700
 H   -5.003176   -5.412441    1.244798
}
memory 20GB
set_num_threads(6)
psi4_io.set_default_path("/scratch/bdw2292")
set freeze_core True
E, wfn = energy('mp2/6-311++G**',return_wfn=True)
oeprop(wfn,"WIBERG_LOWDIN_INDICES")
clean()
--------------------------------------------------------------------------

    Molecular point group: c1

    Geometry (in Angstrom), charge = 0, multiplicity = 1:

       Center              X                  Y                   Z               Mass
    ------------   -----------------  -----------------  -----------------  -----------------
         C           -2.830623586303     5.304981388313     0.080392598028    12.000000000000
         C           -3.889833586303     4.395446388313    -0.024102401972    12.000000000000
         C           -3.645859586303     3.009477388313     0.064909598028    12.000000000000
         C           -2.293620586303     2.635248388313     0.259197598028    12.000000000000
         N           -1.266063586303     3.492373388313     0.368935598028    14.003074004430
         C           -1.541881586303     4.800881388313     0.277124598028    12.000000000000
         C           -4.737128586303     1.967828388313    -0.009892401972    12.000000000000
         C           -6.108624586303     2.279278388313    -0.050974401972    12.000000000000
         C           -6.988336586303     1.193771388313    -0.054292401972    12.000000000000
         N           -6.602631586303    -0.077656611687    -0.029248401972    14.003074004430
         C           -5.269831586303    -0.289771611687    -0.009859401972    12.000000000000
         N           -4.347993586303     0.675100388313    -0.002065401972    14.003074004430
         N           -4.928071586303    -1.631305611687     0.009672598028    14.003074004430
         C           -3.697281586303    -2.365607611687     0.110552598028    12.000000000000
         C           -3.747369586303    -3.726391611687     0.543381598028    12.000000000000
         C           -2.527243586303    -4.406401611687     0.671176598028    12.000000000000
         C           -1.283691586303    -3.841405611687     0.370871598028    12.000000000000
         C           -1.246799586303    -2.527897611687    -0.114847401972    12.000000000000
         C           -2.452426586303    -1.810564611687    -0.213974401972    12.000000000000
         N           -0.028672586303    -1.862699611687    -0.490885401972    14.003074004430
         C            0.283582413697    -0.552121611687    -0.779319401972    12.000000000000
         C            1.735187413697    -0.213839611687    -1.048277401972    12.000000000000
         C            2.618390413697    -1.056502611687    -1.741915401972    12.000000000000
         C            3.955841413697    -0.690227611687    -1.910629401972    12.000000000000
         C            4.453003413697     0.530248388313    -1.415070401972    12.000000000000
         C            3.542272413697     1.387584388313    -0.767461401972    12.000000000000
         C            2.202027413697     1.032784388313    -0.598084401972    12.000000000000
         C            5.931448413697     0.899960388313    -1.550669401972    12.000000000000
         N            6.880960413697     0.473221388313    -0.508939401972    14.003074004430
         C            7.244916413697    -0.958964611687    -0.411930401972    12.000000000000
         C            6.390836413697    -1.773975611687     0.593762598028    12.000000000000
         N            6.336016413697    -1.186633611687     1.954160598028    14.003074004430
         C            7.470428413697    -1.472354611687     2.840080598028    12.000000000000
         C            5.923678413697     0.234026388313     1.843600598028    12.000000000000
         C            6.772111413697     1.064060388313     0.845063598028    12.000000000000
         O           -0.548425586303     0.338008388313    -0.794483401972    15.994914619570
         C           -5.038225586303    -4.445458611687     0.900230598028    12.000000000000
         H           -2.998507586303     6.375604388313     0.010745598028     1.007825032230
         H           -4.889692586303     4.790419388313    -0.186440401972     1.007825032230
         H           -2.040630586303     1.584203388313     0.331531598028     1.007825032230
         H           -0.682714586303     5.463535388313     0.368773598028     1.007825032230
         H           -6.509724586303     3.284815388313    -0.048517401972     1.007825032230
         H           -8.069716586303     1.325939388313    -0.069618401972     1.007825032230
         H           -5.776030586303    -2.175626611687     0.055082598028     1.007825032230
         H           -2.527191586303    -5.438393611687     1.020812598028     1.007825032230
         H           -0.371867586303    -4.413923611687     0.492273598028     1.007825032230
         H           -2.440040586303    -0.789868611687    -0.564152401972     1.007825032230
         H            0.743007413697    -2.514478611687    -0.487386401972     1.007825032230
         H            2.252892413697    -1.998949611687    -2.141795401972     1.007825032230
         H            4.625827413697    -1.378561611687    -2.425574401972     1.007825032230
         H            3.884467413697     2.343620388313    -0.372449401972     1.007825032230
         H            1.505902413697     1.708754388313    -0.104159401972     1.007825032230
         H            6.303149413697     0.497939388313    -2.503751401972     1.007825032230
         H            6.007319413697     1.994451388313    -1.618343401972     1.007825032230
         H            7.229536413697    -1.468689611687    -1.497528401972     1.007825032230
         H            8.639796413697    -1.014356611687     0.047643598028     1.007825032230
         H            6.865013413697    -3.020362611687     0.681331598028     1.007825032230
         H            5.156034413697    -1.859074611687     0.161728598028     1.007825032230
         H            8.391833413697    -1.020860611687     2.455396598028     1.007825032230
         H            7.617749413697    -2.554885611687     2.929370598028     1.007825032230
         H            7.275764413697    -1.077374611687     3.843764598028     1.007825032230
         H            5.962838413697     0.782006388313     3.030937598028     1.007825032230
         H            4.591517413697     0.238058388313     1.432756598028     1.007825032230
         H            8.142776413697     1.147645388313     1.390569598028     1.007825032230
         H            6.371757413697     2.178054388313     0.778499598028     1.007825032230
         H           -5.729999586303    -4.522193611687     0.049237598028     1.007825032230
         H           -5.569244586303    -3.923911611687     1.701570598028     1.007825032230
         H           -4.870745586303    -5.466817611687     1.251668598028     1.007825032230

  Charge       = 0
  Multiplicity = 1
  Basis Set: 6-311++G**
    Blend: 6-311++G**
  Basis Set: (6-311++G** AUX)
    Blend: AUG-CC-PVTZ-JKFIT

    Orbital Energies [Eh]
    ---------------------

    Doubly Occupied:

       1A    -20.524063     2A    -15.606605     3A    -15.593895
       4A    -15.569917     5A    -15.560269     6A    -15.559693
       7A    -15.556282     8A    -15.555660     9A    -11.370567
      10A    -11.362458    11A    -11.320138    12A    -11.312312
      13A    -11.311399    14A    -11.308563    15A    -11.305685
      16A    -11.299500    17A    -11.296620    18A    -11.296030
      19A    -11.279365    20A    -11.279100    21A    -11.270402
      22A    -11.268680    23A    -11.261455    24A    -11.260041
      25A    -11.259475    26A    -11.256401    27A    -11.251164
      28A    -11.250440    29A    -11.247441    30A    -11.246591
      31A    -11.246581    32A    -11.243360    33A    -11.243344
      34A    -11.237405    35A    -11.237022    36A    -11.233096
      37A    -11.221150    38A     -1.393147    39A     -1.332155
      40A     -1.252999    41A     -1.250474    42A     -1.245771
      43A     -1.233977    44A     -1.200109    45A     -1.194629
      46A     -1.164976    47A     -1.138776    48A     -1.096721
      49A     -1.064349    50A     -1.057287    51A     -1.037717
      52A     -1.028392    53A     -1.027375    54A     -1.004476
      55A     -0.991561    56A     -0.978023    57A     -0.946297
      58A     -0.928391    59A     -0.908000    60A     -0.892460
      61A     -0.867039    62A     -0.854139    63A     -0.845091
      64A     -0.840994    65A     -0.830689    66A     -0.825073
      67A     -0.818282    68A     -0.805232    69A     -0.782084
      70A     -0.749598    71A     -0.730354    72A     -0.725795
      73A     -0.706575    74A     -0.699259    75A     -0.689165
      76A     -0.674819    77A     -0.669435    78A     -0.659452
      79A     -0.653218    80A     -0.647479    81A     -0.643311
      82A     -0.641306    83A     -0.635749    84A     -0.629999
      85A     -0.620763    86A     -0.615229    87A     -0.607017
      88A     -0.606599    89A     -0.599659    90A     -0.595498
      91A     -0.591401    92A     -0.587933    93A     -0.584797
      94A     -0.579728    95A     -0.579387    96A     -0.578359
      97A     -0.575946    98A     -0.569543    99A     -0.564292
     100A     -0.549251   101A     -0.538812   102A     -0.530789
     103A     -0.526565   104A     -0.524813   105A     -0.520264
     106A     -0.519391   107A     -0.513493   108A     -0.511356
     109A     -0.509945   110A     -0.505564   111A     -0.501414
     112A     -0.497001   113A     -0.479715   114A     -0.476479
     115A     -0.453714   116A     -0.438023   117A     -0.436785
     118A     -0.429603   119A     -0.425550   120A     -0.418308
     121A     -0.412754   122A     -0.396889   123A     -0.383328
     124A     -0.380734   125A     -0.360655   126A     -0.349224
     127A     -0.344584   128A     -0.328054   129A     -0.315675
     130A     -0.309722   131A     -0.288607

  @DF-RHF Final Energy: -1572.35785937374953

   => Energetics <=

    Nuclear Repulsion Energy =           3692.9133896957009711
    One-Electron Energy =               -9485.4873436731741094
    Two-Electron Energy =                4220.2160946037238318
    Total Energy =                      -1572.3578593737493065

  Dipole Moment: [D]
     X:     0.1464      Y:    -0.3558      Z:    -0.2781     Total:     0.4747

  Basis Set: (6-311++G** AUX)
    Blend: AUG-CC-PVTZ-RI
	 Reference Energy          =   -1572.3578593737495339 [Eh]
	 Singles Energy            =      -0.0000000000000000 [Eh]
	 Same-Spin Energy          =      -1.4709270812461974 [Eh]
	 Opposite-Spin Energy      =      -4.0475498182899345 [Eh]
	 Correlation Energy        =      -5.5184768995361324 [Eh]
	 Total Energy              =   -1577.8763362732856876 [Eh]

	 ================> DF-SCS-MP2 Energies <==================
	-----------------------------------------------------------
	 SCS Same-Spin Scale       =       0.3333333333333333 [-]
	 SCS Opposite-Spin Scale   =       1.2000000000000000 [-]
	 SCS Same-Spin Energy      =      -0.4903090270820658 [Eh]
	 SCS Opposite-Spin Energy  =      -4.8570597819479211 [Eh]
	 SCS Correlation Energy    =      -5.3473688090299873 [Eh]
	 SCS Total Energy          =   -1577.7052281827795923 [Eh]
	-----------------------------------------------------------

*** Psi4 exiting successfully. Buy a developer a beer!
