 Gaussian 09, Revision A.02,
 Gaussian 09:  EM64L-G09RevA.02 11-Jun-2009

 --------------------------------------------------
 #P opt=(,maxcycle=400) wB97XD/6-31G* MaxDisk=100GB
 --------------------------------------------------

 --------------------------------------------------------------
 MOLECULE0 Rotatable Bond Optimization on node37.bme.utexas.edu
 --------------------------------------------------------------
 Symbolic Z-matrix:
 Charge =  0 Multiplicity = 1

 SCF Done:  E(RwB97XD) =  -1581.52615759     A.U. after   16 cycles
 SCF Done:  E(RwB97XD) =  -1581.58760584     A.U. after   13 cycles
 SCF Done:  E(RwB97XD) =  -1581.68321901     A.U. after   14 cycles
 SCF Done:  E(RwB97XD) =  -1581.71821054     A.U. after   14 cycles
 SCF Done:  E(RwB97XD) =  -1581.73172518     A.U. after   17 cycles
 SCF Done:  E(RwB97XD) =  -1581.73004530     A.U. after   17 cycles
 SCF Done:  E(RwB97XD) =  -1581.74427129     A.U. after   14 cycles
 SCF Done:  E(RwB97XD) =  -1581.75445118     A.U. after   14 cycles
 SCF Done:  E(RwB97XD) =  -1581.75888428     A.U. after   17 cycles
 SCF Done:  E(RwB97XD) =  -1581.76040406     A.U. after   14 cycles
 SCF Done:  E(RwB97XD) =  -1581.76315607     A.U. after   12 cycles
 SCF Done:  E(RwB97XD) =  -1581.76318131     A.U. after   12 cycles
 SCF Done:  E(RwB97XD) =  -1581.76320517     A.U. after   12 cycles
 SCF Done:  E(RwB97XD) =  -1581.76320882     A.U. after   11 cycles
 SCF Done:  E(RwB97XD) =  -1581.76321589     A.U. after   11 cycles
 SCF Done:  E(RwB97XD) =  -1581.76321597     A.U. after    8 cycles
 SCF Done:  E(RwB97XD) =  -1581.76321620     A.U. after    8 cycles
 SCF Done:  E(RwB97XD) =  -1581.76321621     A.U. after    7 cycles
 SCF Done:  E(RwB97XD) =  -1581.76321612     A.U. after    6 cycles
 SCF Done:  E(RwB97XD) =  -1581.76321608     A.U. after    6 cycles
 Optimization completed.
    -- Stationary point found.

                         Standard orientation:
 ---------------------------------------------------------------------
 Center     Atomic      Atomic             Coordinates (Angstroms)
 Number     Number       Type             X           Y           Z
 ---------------------------------------------------------------------
      1          6           0       -0.473815    4.275014   -0.771797
      2          6           0        0.870707    4.192393   -0.430465
      3          6           0        1.547183    2.990414   -0.631533
      4          6           0        0.820786    1.926308   -1.182514
      5          7           0       -0.468168    1.989988   -1.511660
      6          6           0       -1.097120    3.150036   -1.300731
      7          6           0        2.969038    2.789322   -0.253805
      8          6           0        3.899998    3.819340   -0.154503
      9          6           0        5.185946    3.446834    0.235404
     10          7           0        5.545356    2.197518    0.496703
     11          6           0        4.571976    1.275050    0.354476
     12          7           0        3.311938    1.523682   -0.002080
     13          7           0        4.960766   -0.010919    0.613121
     14          6           0        4.245082   -1.217043    0.494630
     15          6           0        4.968890   -2.426707    0.479905
     16          6           0        4.248338   -3.609586    0.338622
     17          6           0        2.862596   -3.650907    0.195621
     18          6           0        2.171290   -2.443372    0.217143
     19          6           0        2.859551   -1.243376    0.393605
     20          7           0        0.784769   -2.305417    0.039256
     21          6           0       -0.155244   -3.232601   -0.331168
     22          6           0       -1.474700   -2.601108   -0.675412
     23          6           0       -1.549825   -1.358096   -1.310877
     24          6           0       -2.782162   -0.778754   -1.574485
     25          6           0       -3.965537   -1.409954   -1.191398
     26          6           0       -3.883845   -2.677454   -0.608000
     27          6           0       -2.653729   -3.274433   -0.357903
     28          6           0       -5.302546   -0.704113   -1.348327
     29          7           0       -5.692463    0.226098   -0.299555
     30          6           0       -5.025425    1.522730   -0.247499
     31          6           0       -3.815437    1.577625    0.702934
     32          7           0       -4.112730    1.068763    2.039007
     33          6           0       -4.901471    1.977910    2.851372
     34          6           0       -4.678988   -0.274592    1.940032
     35          6           0       -5.914145   -0.340127    1.026383
     36          8           0        0.036758   -4.436446   -0.364917
     37          6           0        6.471656   -2.442411    0.599760
     38          1           0       -1.033262    5.191661   -0.619075
     39          1           0        1.375706    5.045516    0.013419
     40          1           0        1.324943    0.980972   -1.366439
     41          1           0       -2.152051    3.176828   -1.565195
     42          1           0        3.661022    4.851131   -0.380410
     43          1           0        5.967475    4.197018    0.338273
     44          1           0        5.941999   -0.076980    0.839010
     45          1           0        4.796594   -4.548256    0.325614
     46          1           0        2.333687   -4.584997    0.064882
     47          1           0        2.314475   -0.312014    0.418850
     48          1           0        0.446171   -1.359018    0.130752
     49          1           0       -0.653370   -0.833108   -1.627763
     50          1           0       -2.810074    0.190691   -2.065409
     51          1           0       -4.798564   -3.197326   -0.331664
     52          1           0       -2.590032   -4.257014    0.098967
     53          1           0       -5.308313   -0.148835   -2.294091
     54          1           0       -6.094939   -1.459896   -1.422728
     55          1           0       -4.723721    1.804106   -1.263549
     56          1           0       -5.766719    2.267936    0.078514
     57          1           0       -3.458059    2.611500    0.792487
     58          1           0       -2.990667    0.982381    0.295688
     59          1           0       -5.911528    2.205586    2.467360
     60          1           0       -4.363691    2.927244    2.951562
     61          1           0       -5.017202    1.550974    3.853565
     62          1           0       -4.937468   -0.623162    2.947329
     63          1           0       -3.897197   -0.938134    1.552466
     64          1           0       -6.742793    0.208408    1.498477
     65          1           0       -6.248012   -1.377883    0.915468
     66          1           0        6.816997   -2.030652    1.557982
     67          1           0        6.952012   -1.866117   -0.201649
     68          1           0        6.851966   -3.465037    0.536282
 ---------------------------------------------------------------------

 The electronic state is 1-A.
 Alpha  occ. eigenvalues --  -19.23411 -14.49282 -14.48321 -14.46751 -14.46096
 Alpha  occ. eigenvalues --  -14.45764 -14.43616 -14.43135 -10.41778 -10.40081
 Alpha  occ. eigenvalues --  -10.37615 -10.36338 -10.35325 -10.35084 -10.34623
 Alpha  occ. eigenvalues --  -10.34135 -10.34016 -10.33622 -10.32863 -10.32367
 Alpha  occ. eigenvalues --  -10.31860 -10.31492 -10.31179 -10.30935 -10.30708
 Alpha  occ. eigenvalues --  -10.30688 -10.30677 -10.30586 -10.30533 -10.30403
 Alpha  occ. eigenvalues --  -10.30377 -10.30220 -10.30020 -10.29974 -10.29575
 Alpha  occ. eigenvalues --  -10.28740 -10.28405  -1.13443  -1.12295  -1.06322
 Alpha  occ. eigenvalues --   -1.04565  -1.03829  -1.03634  -1.00715  -0.99558
 Alpha  occ. eigenvalues --   -0.96086  -0.94671  -0.93098  -0.89778  -0.88124
 Alpha  occ. eigenvalues --   -0.87388  -0.86228  -0.85400  -0.84542  -0.83783
 Alpha  occ. eigenvalues --   -0.81888  -0.79581  -0.78270  -0.77798  -0.76320
 Alpha  occ. eigenvalues --   -0.73881  -0.73301  -0.73025  -0.72621  -0.70870
 Alpha  occ. eigenvalues --   -0.70314  -0.69615  -0.68039  -0.66413  -0.65150
 Alpha  occ. eigenvalues --   -0.63656  -0.63408  -0.62228  -0.61762  -0.60211
 Alpha  occ. eigenvalues --   -0.58848  -0.58045  -0.57570  -0.56611  -0.56101
 Alpha  occ. eigenvalues --   -0.55817  -0.55236  -0.55134  -0.54965  -0.54255
 Alpha  occ. eigenvalues --   -0.53867  -0.53239  -0.53154  -0.52612  -0.52174
 Alpha  occ. eigenvalues --   -0.51912  -0.51509  -0.51370  -0.50999  -0.50575
 Alpha  occ. eigenvalues --   -0.50365  -0.50117  -0.49974  -0.49497  -0.48335
 Alpha  occ. eigenvalues --   -0.47217  -0.46906  -0.46619  -0.46319  -0.46211
 Alpha  occ. eigenvalues --   -0.45762  -0.45235  -0.44798  -0.44045  -0.43932
 Alpha  occ. eigenvalues --   -0.43328  -0.43016  -0.42141  -0.41766  -0.41439
 Alpha  occ. eigenvalues --   -0.40964  -0.40776  -0.39912  -0.38187  -0.37592
 Alpha  occ. eigenvalues --   -0.35821  -0.35293  -0.34001  -0.33446  -0.33373
 Alpha  occ. eigenvalues --   -0.32818  -0.31904  -0.30772  -0.29115  -0.27079
 Alpha  occ. eigenvalues --   -0.24996
 Alpha virt. eigenvalues --   -0.00292   0.02872   0.03586   0.04480   0.06433
 Alpha virt. eigenvalues --    0.07258   0.08204   0.10371   0.13887   0.14814
 Alpha virt. eigenvalues --    0.15729   0.16386   0.17252   0.17441   0.18251

 Mulliken atomic charges:
              1
     1  C   -0.197839
     2  C   -0.154406
     3  C    0.035511
     4  C    0.009581
     5  N   -0.437517
     6  C    0.035724
     7  C    0.295161
     8  C   -0.254766
     9  C    0.049018
    10  N   -0.493037
    11  C    0.714359
    12  N   -0.568401
    13  N   -0.802050
    14  C    0.291475
    15  C    0.119858
    16  C   -0.240381
    17  C   -0.191299
    18  C    0.358152
    19  C   -0.269693
    20  N   -0.757964
    21  C    0.585724
    22  C    0.015188
    23  C   -0.205354
    24  C   -0.217899
    25  C    0.155968
    26  C   -0.223077
    27  C   -0.178384
    28  C   -0.263560
    29  N   -0.382219
    30  C   -0.183899
    31  C   -0.181772
    32  N   -0.385718
    33  C   -0.349277
    34  C   -0.182632
    35  C   -0.186519
    36  O   -0.513278
    37  C   -0.607377
    38  H    0.186140
    39  H    0.186727
    40  H    0.198121
    41  H    0.179047
    42  H    0.180746
    43  H    0.189490
    44  H    0.369212
    45  H    0.160819
    46  H    0.213080
    47  H    0.199366
    48  H    0.361561
    49  H    0.185470
    50  H    0.172057
    51  H    0.163617
    52  H    0.195608
    53  H    0.170280
    54  H    0.168919
    55  H    0.148152
    56  H    0.158352
    57  H    0.141660
    58  H    0.174888
    59  H    0.135270
    60  H    0.164120
    61  H    0.167873
    62  H    0.153489
    63  H    0.172923
    64  H    0.159408
    65  H    0.154996
    66  H    0.178038
    67  H    0.182749
    68  H    0.190421
 Sum of Mulliken atomic charges =   0.00000

 Dipole moment (field-independent basis, Debye):
    X=              0.5800    Y=              6.5720    Z=              0.4340  Tot=              6.6118
 Quadrupole moment (field-independent basis, Debye-Ang):
   XX=           -193.2969   YY=           -202.5056   ZZ=           -220.4856
   XY=              3.1065   XZ=             -1.2804   YZ=             -5.2240

 Normal termination of Gaussian 09 at Thu Apr  9 00:55:02 2020.
