                               Psi4 1.3.2 release

  ==> Input File <==

--------------------------------------------------------------------------
molecule {
0 1
 C   -0.136170    4.758607   -1.057894
 C   -1.474026    4.521169   -0.714895
 C   -1.963758    3.201124   -0.660896
 C   -1.033462    2.187016   -0.995449
 N    0.245505    2.393160   -1.334927
 C    0.680962    3.662248   -1.355303
 C   -3.382781    2.848237   -0.286513
 C   -4.424195    3.776152   -0.118823
 C   -5.676624    3.238788    0.199131
 N   -5.915316    1.939968    0.364069
 C   -4.855579    1.120598    0.207188
 N   -3.627872    1.534606   -0.116202
 N   -5.126871   -0.225513    0.401209
 C   -4.331496   -1.429825    0.357894
 C   -4.937273   -2.688407    0.657770
 C   -4.120160   -3.830632    0.596654
 C   -2.758225   -3.803701    0.273502
 C   -2.173190   -2.566051   -0.011309
 C   -2.971251   -1.411964    0.029516
 N   -0.799240   -2.340181   -0.342415
 C    0.274291   -3.190758   -0.475514
 C    1.613765   -2.560095   -0.818057
 C    2.776708   -3.256214   -0.447466
 C    4.036555   -2.682683   -0.637743
 C    4.185011   -1.417835   -1.239306
 C    3.018547   -0.777826   -1.696634
 C    1.754995   -1.337036   -1.497350
 C    5.550558   -0.737615   -1.350359
 N    5.972838    0.193508   -0.288924
 C    6.225977   -0.341152    1.068742
 C    5.014284   -0.252914    2.033409
 N    4.417353    1.101352    2.136064
 C    5.073891    2.041435    3.052153
 C    4.121291    1.599715    0.770471
 C    5.330243    1.525255   -0.198880
 O    0.180727   -4.398713   -0.319578
 C   -6.402203   -2.839571    1.032210
 H    0.264128    5.767440   -1.092594
 H   -2.105431    5.372114   -0.471151
 H   -1.339203    1.147600   -1.016965
 H    1.726402    3.794065   -1.630223
 H   -4.320291    4.846489   -0.246534
 H   -6.555121    3.869586    0.332524
 H   -6.102306   -0.334308    0.633815
 H   -4.555058   -4.804426    0.818004
 H   -2.159584   -4.705639    0.248899
 H   -2.520754   -0.459664   -0.183811
 H   -0.555124   -1.361177   -0.380189
 H    2.674922   -4.225973    0.033272
 H    4.915810   -3.218324   -0.280735
 H    3.085108    0.197267   -2.179175
 H    0.875123   -0.803975   -1.849000
 H    6.321221   -1.518827   -1.412333
 H    5.586373   -0.180515   -2.297245
 H    6.631276   -1.456577    1.004592
 H    7.322901    0.470694    1.658398
 H    5.345883   -0.649438    3.193918
 H    3.989852   -1.116441    1.574567
 H    6.083211    2.288850    2.704525
 H    5.142286    1.606014    4.055771
 H    4.489652    2.965884    3.128375
 H    3.699811    2.814659    0.853226
 H    3.158951    0.910024    0.321232
 H    6.366583    2.469828    0.314264
 H    5.032759    1.913704   -1.277540
 H   -7.081064   -2.470640    0.250154
 H   -6.632217   -2.285708    1.946846
 H   -6.685054   -3.879035    1.217692
}
memory 20GB
set_num_threads(6)
psi4_io.set_default_path("/scratch/bdw2292")
set freeze_core True
E, wfn = energy('mp2/6-311+G*',return_wfn=True)
oeprop(wfn,"WIBERG_LOWDIN_INDICES")
clean()
--------------------------------------------------------------------------

    Molecular point group: c1

    Geometry (in Angstrom), charge = 0, multiplicity = 1:

       Center              X                  Y                   Z               Mass
    ------------   -----------------  -----------------  -----------------  -----------------
         C           -0.046476491934     4.772180978076    -1.011266839732    12.000000000000
         C           -1.384332491934     4.534742978076    -0.668267839732    12.000000000000
         C           -1.874064491934     3.214697978076    -0.614268839732    12.000000000000
         C           -0.943768491934     2.200589978076    -0.948821839732    12.000000000000
         N            0.335198508066     2.406733978076    -1.288299839732    14.003074004430
         C            0.770655508066     3.675821978076    -1.308675839732    12.000000000000
         C           -3.293087491934     2.861810978076    -0.239885839732    12.000000000000
         C           -4.334501491934     3.789725978076    -0.072195839732    12.000000000000
         C           -5.586930491934     3.252361978076     0.245758160268    12.000000000000
         N           -5.825622491934     1.953541978076     0.410696160268    14.003074004430
         C           -4.765885491934     1.134171978076     0.253815160268    12.000000000000
         N           -3.538178491934     1.548179978076    -0.069574839732    14.003074004430
         N           -5.037177491934    -0.211939021924     0.447836160268    14.003074004430
         C           -4.241802491934    -1.416251021924     0.404521160268    12.000000000000
         C           -4.847579491934    -2.674833021924     0.704397160268    12.000000000000
         C           -4.030466491934    -3.817058021924     0.643281160268    12.000000000000
         C           -2.668531491934    -3.790127021924     0.320129160268    12.000000000000
         C           -2.083496491934    -2.552477021924     0.035318160268    12.000000000000
         C           -2.881557491934    -1.398390021924     0.076143160268    12.000000000000
         N           -0.709546491934    -2.326607021924    -0.295787839732    14.003074004430
         C            0.363984508066    -3.177184021924    -0.428886839732    12.000000000000
         C            1.703458508066    -2.546521021924    -0.771429839732    12.000000000000
         C            2.866401508066    -3.242640021924    -0.400838839732    12.000000000000
         C            4.126248508066    -2.669109021924    -0.591115839732    12.000000000000
         C            4.274704508066    -1.404261021924    -1.192678839732    12.000000000000
         C            3.108240508066    -0.764252021924    -1.650006839732    12.000000000000
         C            1.844688508066    -1.323462021924    -1.450722839732    12.000000000000
         C            5.640251508066    -0.724041021924    -1.303731839732    12.000000000000
         N            6.062531508066     0.207081978076    -0.242296839732    14.003074004430
         C            6.315670508066    -0.327578021924     1.115369160268    12.000000000000
         C            5.103977508066    -0.239340021924     2.080036160268    12.000000000000
         N            4.507046508066     1.114925978076     2.182691160268    14.003074004430
         C            5.163584508066     2.055008978076     3.098780160268    12.000000000000
         C            4.210984508066     1.613288978076     0.817098160268    12.000000000000
         C            5.419936508066     1.538828978076    -0.152252839732    12.000000000000
         O            0.270420508066    -4.385139021924    -0.272950839732    15.994914619570
         C           -6.312509491934    -2.825997021924     1.078837160268    12.000000000000
         H            0.353821508066     5.781013978076    -1.045966839732     1.007825032230
         H           -2.015737491934     5.385687978076    -0.424523839732     1.007825032230
         H           -1.249509491934     1.161173978076    -0.970337839732     1.007825032230
         H            1.816095508066     3.807638978076    -1.583595839732     1.007825032230
         H           -4.230597491934     4.860062978076    -0.199906839732     1.007825032230
         H           -6.465427491934     3.883159978076     0.379151160268     1.007825032230
         H           -6.012612491934    -0.320734021924     0.680442160268     1.007825032230
         H           -4.465364491934    -4.790852021924     0.864631160268     1.007825032230
         H           -2.069890491934    -4.692065021924     0.295526160268     1.007825032230
         H           -2.431060491934    -0.446090021924    -0.137183839732     1.007825032230
         H           -0.465430491934    -1.347603021924    -0.333561839732     1.007825032230
         H            2.764615508066    -4.212399021924     0.079899160268     1.007825032230
         H            5.005503508066    -3.204750021924    -0.234107839732     1.007825032230
         H            3.174801508066     0.210840978076    -2.132547839732     1.007825032230
         H            0.964816508066    -0.790401021924    -1.802372839732     1.007825032230
         H            6.410914508066    -1.505253021924    -1.365705839732     1.007825032230
         H            5.676066508066    -0.166941021924    -2.250617839732     1.007825032230
         H            6.720969508066    -1.443003021924     1.051219160268     1.007825032230
         H            7.412594508066     0.484267978076     1.705025160268     1.007825032230
         H            5.435576508066    -0.635864021924     3.240545160268     1.007825032230
         H            4.079545508066    -1.102867021924     1.621194160268     1.007825032230
         H            6.172904508066     2.302423978076     2.751152160268     1.007825032230
         H            5.231979508066     1.619587978076     4.102398160268     1.007825032230
         H            4.579345508066     2.979457978076     3.175002160268     1.007825032230
         H            3.789504508066     2.828232978076     0.899853160268     1.007825032230
         H            3.248644508066     0.923597978076     0.367859160268     1.007825032230
         H            6.456276508066     2.483401978076     0.360891160268     1.007825032230
         H            5.122452508066     1.927277978076    -1.230912839732     1.007825032230
         H           -6.991370491934    -2.457066021924     0.296781160268     1.007825032230
         H           -6.542523491934    -2.272134021924     1.993473160268     1.007825032230
         H           -6.595360491934    -3.865461021924     1.264319160268     1.007825032230

  Charge       = 0
  Multiplicity = 1
  Basis Set: 6-311+G*
    Blend: 6-311+G*
  Basis Set: (6-311+G* AUX)
    Blend: HEAVY-AUG-CC-PVTZ-JKFIT

    Orbital Energies [Eh]
    ---------------------

    Doubly Occupied:

       1A    -20.521210     2A    -15.605232     3A    -15.602692
       4A    -15.587136     5A    -15.573877     6A    -15.570253
       7A    -15.569772     8A    -15.553148     9A    -11.376011
      10A    -11.365681    11A    -11.335647    12A    -11.314374
      13A    -11.312228    14A    -11.312117    15A    -11.306539
      16A    -11.302697    17A    -11.301979    18A    -11.301952
      19A    -11.295563    20A    -11.293009    21A    -11.290355
      22A    -11.281154    23A    -11.278523    24A    -11.266525
      25A    -11.258863    26A    -11.257417    27A    -11.256624
      28A    -11.253477    29A    -11.250264    30A    -11.246995
      31A    -11.246926    32A    -11.246383    33A    -11.245284
      34A    -11.240403    35A    -11.234119    36A    -11.229983
      37A    -11.224840    38A     -1.386355    39A     -1.345128
      40A     -1.279107    41A     -1.252084    42A     -1.244569
      43A     -1.242134    44A     -1.209787    45A     -1.198585
      46A     -1.162909    47A     -1.140199    48A     -1.116819
      49A     -1.076203    50A     -1.060260    51A     -1.049168
      52A     -1.038130    53A     -1.024946    54A     -1.008471
      55A     -0.992432    56A     -0.976948    57A     -0.947389
      58A     -0.927974    59A     -0.926883    60A     -0.901667
      61A     -0.873778    62A     -0.866165    63A     -0.858747
      64A     -0.843108    65A     -0.835644    66A     -0.827460
      67A     -0.825011    68A     -0.805752    69A     -0.778920
      70A     -0.755630    71A     -0.740668    72A     -0.731655
      73A     -0.723200    74A     -0.702940    75A     -0.696962
      76A     -0.684201    77A     -0.673608    78A     -0.668242
      79A     -0.659130    80A     -0.656247    81A     -0.652891
      82A     -0.642217    83A     -0.636824    84A     -0.631574
      85A     -0.620741    86A     -0.619855    87A     -0.613981
      88A     -0.607857    89A     -0.606671    90A     -0.603238
      91A     -0.600697    92A     -0.596243    93A     -0.594329
      94A     -0.590193    95A     -0.584694    96A     -0.581920
      97A     -0.580141    98A     -0.576540    99A     -0.565860
     100A     -0.561863   101A     -0.548974   102A     -0.545793
     103A     -0.531660   104A     -0.527701   105A     -0.526010
     106A     -0.523576   107A     -0.514917   108A     -0.510547
     109A     -0.510251   110A     -0.506549   111A     -0.503814
     112A     -0.495695   113A     -0.484191   114A     -0.482287
     115A     -0.458545   116A     -0.452035   117A     -0.443266
     118A     -0.436520   119A     -0.428965   120A     -0.424999
     121A     -0.414898   122A     -0.410114   123A     -0.400576
     124A     -0.381507   125A     -0.374565   126A     -0.346886
     127A     -0.346217   128A     -0.342107   129A     -0.315198
     130A     -0.312002   131A     -0.288923

  @DF-RHF Final Energy: -1572.32161078190120

   => Energetics <=

    Nuclear Repulsion Energy =           3769.2832606785755161
    One-Electron Energy =               -9636.6455905048042041
    Two-Electron Energy =                4295.0407190443265790
    Total Energy =                      -1572.3216107819016543

  Dipole Moment: [D]
     X:    -1.2357      Y:     6.8080      Z:    -0.1954     Total:     6.9220

  Basis Set: (6-311+G* AUX)
    Blend: HEAVY-AUG-CC-PVTZ-RI
	 Reference Energy          =   -1572.3216107819011995 [Eh]
	 Singles Energy            =      -0.0000000000000000 [Eh]
	 Same-Spin Energy          =      -1.4489486376261302 [Eh]
	 Opposite-Spin Energy      =      -3.8923102588152636 [Eh]
	 Correlation Energy        =      -5.3412588964413938 [Eh]
	 Total Energy              =   -1577.6628696783425312 [Eh]

	 ================> DF-SCS-MP2 Energies <==================
	-----------------------------------------------------------
	 SCS Same-Spin Scale       =       0.3333333333333333 [-]
	 SCS Opposite-Spin Scale   =       1.2000000000000000 [-]
	 SCS Same-Spin Energy      =      -0.4829828792087101 [Eh]
	 SCS Opposite-Spin Energy  =      -4.6707723105783163 [Eh]
	 SCS Correlation Energy    =      -5.1537551897870264 [Eh]
	 SCS Total Energy          =   -1577.4753659716882339 [Eh]
	-----------------------------------------------------------

*** Psi4 exiting successfully. Buy a developer a beer!
