 Gaussian 09, Revision A.02,
 Gaussian 09:  EM64L-G09RevA.02 11-Jun-2009

 --------------------------------------------------
 #P opt=(,maxcycle=400) wB97XD/6-31G* MaxDisk=100GB
 --------------------------------------------------

 -----------------------------------------------------------------
 MOLECULE0 Rotatable Bond Optimization on g2-node38.bme.utexas.edu
 -----------------------------------------------------------------
 Symbolic Z-matrix:
 Charge =  0 Multiplicity = 1

 SCF Done:  E(RwB97XD) =  -1581.51473171     A.U. after   16 cycles
 SCF Done:  E(RwB97XD) =  -1581.57768400     A.U. after   13 cycles
 SCF Done:  E(RwB97XD) =  -1581.67681611     A.U. after   14 cycles
 SCF Done:  E(RwB97XD) =  -1581.71432879     A.U. after   14 cycles
 SCF Done:  E(RwB97XD) =  -1581.72969520     A.U. after   17 cycles
 SCF Done:  E(RwB97XD) =  -1581.72622174     A.U. after   15 cycles
 SCF Done:  E(RwB97XD) =  -1581.74487647     A.U. after   14 cycles
 SCF Done:  E(RwB97XD) =  -1581.75421597     A.U. after   14 cycles
 SCF Done:  E(RwB97XD) =  -1581.75729931     A.U. after   14 cycles
 SCF Done:  E(RwB97XD) =  -1581.75832331     A.U. after   14 cycles
 SCF Done:  E(RwB97XD) =  -1581.76144451     A.U. after   14 cycles
 SCF Done:  E(RwB97XD) =  -1581.76152932     A.U. after   13 cycles
 SCF Done:  E(RwB97XD) =  -1581.76159109     A.U. after   13 cycles
 SCF Done:  E(RwB97XD) =  -1581.76161104     A.U. after   12 cycles
 SCF Done:  E(RwB97XD) =  -1581.76162346     A.U. after   12 cycles
 SCF Done:  E(RwB97XD) =  -1581.76162985     A.U. after   11 cycles
 SCF Done:  E(RwB97XD) =  -1581.76163245     A.U. after   11 cycles
 SCF Done:  E(RwB97XD) =  -1581.76163394     A.U. after   10 cycles
 SCF Done:  E(RwB97XD) =  -1581.76163418     A.U. after    7 cycles
 SCF Done:  E(RwB97XD) =  -1581.76163411     A.U. after    7 cycles
 Optimization completed.
    -- Stationary point found.

                         Standard orientation:
 ---------------------------------------------------------------------
 Center     Atomic      Atomic             Coordinates (Angstroms)
 Number     Number       Type             X           Y           Z
 ---------------------------------------------------------------------
      1          6           0       -1.227176    4.807033   -0.670038
      2          6           0       -2.528231    4.351258   -0.495702
      3          6           0       -2.733267    3.055446   -0.025144
      4          6           0       -1.597834    2.284173    0.257126
      5          7           0       -0.345745    2.703731    0.085289
      6          6           0       -0.174926    3.946526   -0.375960
      7          6           0       -4.081495    2.457601    0.141251
      8          6           0       -5.244321    3.198240    0.334360
      9          6           0       -6.425969    2.465527    0.440490
     10          7           0       -6.481663    1.141790    0.382651
     11          6           0       -5.295713    0.521745    0.216247
     12          7           0       -4.114779    1.124175    0.084184
     13          7           0       -5.362636   -0.843753    0.182501
     14          6           0       -4.332233   -1.801368    0.128108
     15          6           0       -4.639846   -3.127579    0.492975
     16          6           0       -3.610095   -4.062896    0.457280
     17          6           0       -2.302028   -3.748180    0.096396
     18          6           0       -2.023363   -2.433163   -0.267009
     19          6           0       -3.040537   -1.478211   -0.273195
     20          7           0       -0.750935   -1.955257   -0.628426
     21          6           0        0.465005   -2.583204   -0.557792
     22          6           0        1.634343   -1.685370   -0.852863
     23          6           0        2.790435   -2.278192   -1.363066
     24          6           0        3.899107   -1.501413   -1.669893
     25          6           0        3.895062   -0.120907   -1.451670
     26          6           0        2.738963    0.462209   -0.932566
     27          6           0        1.621202   -0.305500   -0.629003
     28          6           0        5.126565    0.721114   -1.753215
     29          7           0        6.111607    0.906435   -0.701649
     30          6           0        6.909680   -0.251742   -0.316082
     31          6           0        6.334402   -1.033154    0.877514
     32          7           0        6.043175   -0.183339    2.029087
     33          6           0        7.224637    0.246061    2.755725
     34          6           0        5.166416    0.912284    1.625138
     35          6           0        5.724781    1.722817    0.443180
     36          8           0        0.608279   -3.767631   -0.300679
     37          6           0       -6.031242   -3.521190    0.919769
     38          1           0       -1.030289    5.805809   -1.044504
     39          1           0       -3.370212    4.988238   -0.751251
     40          1           0       -1.724547    1.278087    0.648125
     41          1           0        0.854775    4.266014   -0.518598
     42          1           0       -5.245701    4.278098    0.416558
     43          1           0       -7.377332    2.973780    0.584136
     44          1           0       -6.300038   -1.186603    0.330396
     45          1           0       -3.834963   -5.089121    0.736701
     46          1           0       -1.519929   -4.493882    0.100158
     47          1           0       -2.821160   -0.461719   -0.563517
     48          1           0       -0.737314   -0.997020   -0.943608
     49          1           0        2.798132   -3.352013   -1.519465
     50          1           0        4.786422   -1.973541   -2.085797
     51          1           0        2.703729    1.533721   -0.750310
     52          1           0        0.763463    0.199051   -0.191219
     53          1           0        5.649068    0.280394   -2.611524
     54          1           0        4.797675    1.720109   -2.066749
     55          1           0        7.019728   -0.911197   -1.184540
     56          1           0        7.919140    0.103682   -0.059989
     57          1           0        7.036427   -1.817152    1.186003
     58          1           0        5.399524   -1.523899    0.582669
     59          1           0        7.925820    0.884648    2.189799
     60          1           0        7.777963   -0.637998    3.090952
     61          1           0        6.913555    0.803342    3.646216
     62          1           0        5.002076    1.570592    2.486856
     63          1           0        4.197511    0.478310    1.352182
     64          1           0        6.613833    2.278151    0.777648
     65          1           0        4.992519    2.468945    0.114076
     66          1           0       -6.771172   -3.364562    0.122849
     67          1           0       -6.365235   -2.955921    1.799488
     68          1           0       -6.066802   -4.581572    1.182050
 ---------------------------------------------------------------------

 The electronic state is 1-A.
 Alpha  occ. eigenvalues --  -19.23347 -14.49256 -14.48458 -14.46729 -14.46087
 Alpha  occ. eigenvalues --  -14.45740 -14.43379 -14.42722 -10.41747 -10.40127
 Alpha  occ. eigenvalues --  -10.37599 -10.36338 -10.35289 -10.35028 -10.34636
 Alpha  occ. eigenvalues --  -10.34135 -10.34067 -10.33598 -10.32848 -10.32291
 Alpha  occ. eigenvalues --  -10.31856 -10.31037 -10.30996 -10.30955 -10.30710
 Alpha  occ. eigenvalues --  -10.30698 -10.30370 -10.30280 -10.30257 -10.30233
 Alpha  occ. eigenvalues --  -10.30232 -10.30117 -10.30111 -10.30033 -10.29533
 Alpha  occ. eigenvalues --  -10.28846 -10.28335  -1.13493  -1.12301  -1.06306
 Alpha  occ. eigenvalues --   -1.04558  -1.03603  -1.03554  -1.00718  -0.99258
 Alpha  occ. eigenvalues --   -0.96019  -0.94681  -0.93090  -0.89763  -0.88059
 Alpha  occ. eigenvalues --   -0.87362  -0.86237  -0.85108  -0.84471  -0.83761
 Alpha  occ. eigenvalues --   -0.81666  -0.79492  -0.78258  -0.77659  -0.76306
 Alpha  occ. eigenvalues --   -0.73858  -0.72955  -0.72946  -0.72599  -0.70813
 Alpha  occ. eigenvalues --   -0.70268  -0.69519  -0.67960  -0.66409  -0.65193
 Alpha  occ. eigenvalues --   -0.63616  -0.63255  -0.62260  -0.61799  -0.60197
 Alpha  occ. eigenvalues --   -0.58814  -0.57958  -0.57455  -0.56468  -0.56069
 Alpha  occ. eigenvalues --   -0.55802  -0.55145  -0.54950  -0.54630  -0.54225
 Alpha  occ. eigenvalues --   -0.53567  -0.53187  -0.52973  -0.52334  -0.52180
 Alpha  occ. eigenvalues --   -0.51854  -0.51496  -0.51333  -0.50900  -0.50592
 Alpha  occ. eigenvalues --   -0.50458  -0.50178  -0.49951  -0.49426  -0.48310
 Alpha  occ. eigenvalues --   -0.47275  -0.46728  -0.46452  -0.46284  -0.45987
 Alpha  occ. eigenvalues --   -0.45575  -0.44873  -0.44525  -0.43927  -0.43717
 Alpha  occ. eigenvalues --   -0.43439  -0.43047  -0.42063  -0.41690  -0.41203
 Alpha  occ. eigenvalues --   -0.40646  -0.40590  -0.39935  -0.38200  -0.37598
 Alpha  occ. eigenvalues --   -0.35782  -0.35283  -0.33997  -0.33447  -0.33339
 Alpha  occ. eigenvalues --   -0.32836  -0.31833  -0.30557  -0.29156  -0.27089
 Alpha  occ. eigenvalues --   -0.24672
 Alpha virt. eigenvalues --   -0.00297   0.02900   0.03363   0.04521   0.06516
 Alpha virt. eigenvalues --    0.07280   0.08338   0.10415   0.14541   0.14891
 Alpha virt. eigenvalues --    0.15955   0.16292   0.17361   0.17725   0.18683

 Mulliken atomic charges:
              1
     1  C   -0.197809
     2  C   -0.155240
     3  C    0.035195
     4  C    0.006890
     5  N   -0.435298
     6  C    0.031077
     7  C    0.295568
     8  C   -0.255117
     9  C    0.048861
    10  N   -0.492941
    11  C    0.712211
    12  N   -0.567539
    13  N   -0.799942
    14  C    0.290003
    15  C    0.119895
    16  C   -0.240169
    17  C   -0.189962
    18  C    0.357138
    19  C   -0.267491
    20  N   -0.767273
    21  C    0.599450
    22  C    0.016449
    23  C   -0.176853
    24  C   -0.223313
    25  C    0.159694
    26  C   -0.228611
    27  C   -0.208116
    28  C   -0.262973
    29  N   -0.380693
    30  C   -0.186296
    31  C   -0.183437
    32  N   -0.383576
    33  C   -0.349532
    34  C   -0.182830
    35  C   -0.184771
    36  O   -0.516474
    37  C   -0.608206
    38  H    0.186491
    39  H    0.186332
    40  H    0.201291
    41  H    0.181244
    42  H    0.180749
    43  H    0.189378
    44  H    0.369153
    45  H    0.160915
    46  H    0.215632
    47  H    0.195945
    48  H    0.359666
    49  H    0.198341
    50  H    0.163885
    51  H    0.166904
    52  H    0.188302
    53  H    0.168953
    54  H    0.166644
    55  H    0.152163
    56  H    0.159070
    57  H    0.153116
    58  H    0.173794
    59  H    0.133787
    60  H    0.167295
    61  H    0.166558
    62  H    0.152233
    63  H    0.173948
    64  H    0.158562
    65  H    0.149566
    66  H    0.177726
    67  H    0.183628
    68  H    0.190759
 Sum of Mulliken atomic charges =   0.00000

 Dipole moment (field-independent basis, Debye):
    X=             -2.5381    Y=              6.1214    Z=             -1.0823  Tot=              6.7145
 Quadrupole moment (field-independent basis, Debye-Ang):
   XX=           -189.8185   YY=           -196.2219   ZZ=           -219.0797
   XY=             -6.1436   XZ=             -5.5524   YZ=             -1.6374

 Normal termination of Gaussian 09 at Tue Mar 10 12:46:32 2020.
