 Gaussian 09, Revision A.02,
 Gaussian 09:  EM64L-G09RevA.02 11-Jun-2009

 --------------------------------------------------
 #P opt=(,maxcycle=400) wB97XD/6-31G* MaxDisk=100GB
 --------------------------------------------------

 -----------------------------------------------------------------
 MOLECULE0 Rotatable Bond Optimization on g2-node38.bme.utexas.edu
 -----------------------------------------------------------------
 Symbolic Z-matrix:
 Charge =  0 Multiplicity = 1

 SCF Done:  E(RwB97XD) =  -1581.48594489     A.U. after   16 cycles
 SCF Done:  E(RwB97XD) =  -1581.55249439     A.U. after   13 cycles
 SCF Done:  E(RwB97XD) =  -1581.65916926     A.U. after   14 cycles
 SCF Done:  E(RwB97XD) =  -1581.70683133     A.U. after   14 cycles
 SCF Done:  E(RwB97XD) =  -1581.72466688     A.U. after   17 cycles
 SCF Done:  E(RwB97XD) =  -1581.72038570     A.U. after   14 cycles
 SCF Done:  E(RwB97XD) =  -1581.73931577     A.U. after   14 cycles
 SCF Done:  E(RwB97XD) =  -1581.75073525     A.U. after   14 cycles
 SCF Done:  E(RwB97XD) =  -1581.75568818     A.U. after   14 cycles
 SCF Done:  E(RwB97XD) =  -1581.75853803     A.U. after   14 cycles
 SCF Done:  E(RwB97XD) =  -1581.76414065     A.U. after   13 cycles
 SCF Done:  E(RwB97XD) =  -1581.76422447     A.U. after   13 cycles
 SCF Done:  E(RwB97XD) =  -1581.76422925     A.U. after   11 cycles
 SCF Done:  E(RwB97XD) =  -1581.76423184     A.U. after   10 cycles
 SCF Done:  E(RwB97XD) =  -1581.76423256     A.U. after    8 cycles
 SCF Done:  E(RwB97XD) =  -1581.76423364     A.U. after    7 cycles
 SCF Done:  E(RwB97XD) =  -1581.76423292     A.U. after    7 cycles
 SCF Done:  E(RwB97XD) =  -1581.76423352     A.U. after    7 cycles
 SCF Done:  E(RwB97XD) =  -1581.76423312     A.U. after    7 cycles
 SCF Done:  E(RwB97XD) =  -1581.76423334     A.U. after    6 cycles
 Optimization completed.
    -- Stationary point found.

                         Standard orientation:
 ---------------------------------------------------------------------
 Center     Atomic      Atomic             Coordinates (Angstroms)
 Number     Number       Type             X           Y           Z
 ---------------------------------------------------------------------
      1          6           0        0.721235    4.657141   -0.587740
      2          6           0        2.044679    4.401601   -0.251156
      3          6           0        2.549054    3.112753   -0.417841
      4          6           0        1.679237    2.142580   -0.933299
      5          7           0        0.406023    2.370069   -1.250260
      6          6           0       -0.056802    3.611058   -1.072258
      7          6           0        3.930717    2.726109   -0.036670
      8          6           0        4.984828    3.626444    0.091591
      9          6           0        6.206227    3.085286    0.490545
     10          7           0        6.400968    1.794816    0.726262
     11          6           0        5.320364    1.007560    0.549259
     12          7           0        4.105594    1.422618    0.193146
     13          7           0        5.538376   -0.324449    0.769703
     14          6           0        4.687863   -1.425648    0.551378
     15          6           0        5.274608   -2.698422    0.406541
     16          6           0        4.427146   -3.775502    0.164570
     17          6           0        3.045563   -3.649187    0.044910
     18          6           0        2.486737   -2.382773    0.199713
     19          6           0        3.305762   -1.287776    0.479442
     20          7           0        1.116014   -2.094915    0.073612
     21          6           0        0.098652   -2.899559   -0.372581
     22          6           0       -1.204200   -2.180584   -0.581619
     23          6           0       -1.287554   -0.822903   -0.897988
     24          6           0       -2.528952   -0.219939   -1.070241
     25          6           0       -3.705043   -0.955020   -0.942916
     26          6           0       -3.616727   -2.318736   -0.645933
     27          6           0       -2.381906   -2.925575   -0.474257
     28          6           0       -5.053821   -0.299417   -1.149346
     29          7           0       -6.036277   -0.747179   -0.171273
     30          6           0       -7.410444   -0.376375   -0.507515
     31          6           0       -7.716655    1.104457   -0.232646
     32          7           0       -7.407629    1.509727    1.137425
     33          6           0       -8.390538    1.065950    2.110052
     34          6           0       -6.036517    1.131990    1.478494
     35          6           0       -5.728885   -0.347277    1.204908
     36          8           0        0.216334   -4.097961   -0.572041
     37          6           0        6.767304   -2.890390    0.495043
     38          1           0        0.292362    5.645480   -0.461956
     39          1           0        2.665903    5.191407    0.161285
     40          1           0        2.049414    1.133961   -1.096580
     41          1           0       -1.101345    3.773552   -1.327430
     42          1           0        4.882148    4.684542   -0.114289
     43          1           0        7.074813    3.727561    0.621845
     44          1           0        6.502638   -0.524609    0.989241
     45          1           0        4.867843   -4.762345    0.047574
     46          1           0        2.416719   -4.501662   -0.168864
     47          1           0        2.868557   -0.308714    0.608281
     48          1           0        0.865243   -1.141831    0.289016
     49          1           0       -0.402523   -0.209373   -1.046630
     50          1           0       -2.569623    0.839440   -1.311172
     51          1           0       -4.534069   -2.888699   -0.534522
     52          1           0       -2.306486   -3.985369   -0.253385
     53          1           0       -4.912397    0.795840   -1.179122
     54          1           0       -5.436388   -0.582105   -2.139033
     55          1           0       -7.596713   -0.617687   -1.560425
     56          1           0       -8.079697   -1.008992    0.090694
     57          1           0       -8.771676    1.321014   -0.436690
     58          1           0       -7.122512    1.733554   -0.909756
     59          1           0       -8.484283   -0.028270    2.225683
     60          1           0       -9.374489    1.455582    1.827518
     61          1           0       -8.136495    1.482635    3.090601
     62          1           0       -5.855546    1.369224    2.533093
     63          1           0       -5.359134    1.764346    0.888325
     64          1           0       -6.325602   -0.981419    1.873382
     65          1           0       -4.676563   -0.565984    1.411965
     66          1           0        7.163793   -2.622292    1.483962
     67          1           0        7.302969   -2.290081   -0.251490
     68          1           0        7.029379   -3.936916    0.320269
 ---------------------------------------------------------------------

 The electronic state is 1-A.
 Alpha  occ. eigenvalues --  -19.23157 -14.49128 -14.48281 -14.46603 -14.45982
 Alpha  occ. eigenvalues --  -14.45623 -14.43981 -14.43582 -10.41641 -10.39921
 Alpha  occ. eigenvalues --  -10.37508 -10.36238 -10.35179 -10.34891 -10.34526
 Alpha  occ. eigenvalues --  -10.34035 -10.33978 -10.33488 -10.32739 -10.32324
 Alpha  occ. eigenvalues --  -10.31758 -10.31457 -10.31351 -10.31232 -10.31032
 Alpha  occ. eigenvalues --  -10.30985 -10.30672 -10.30559 -10.30282 -10.30275
 Alpha  occ. eigenvalues --  -10.29955 -10.29787 -10.29727 -10.29440 -10.29336
 Alpha  occ. eigenvalues --  -10.28823 -10.28225  -1.13295  -1.12192  -1.06193
 Alpha  occ. eigenvalues --   -1.04437  -1.04368  -1.03418  -1.00606  -0.99923
 Alpha  occ. eigenvalues --   -0.95688  -0.94558  -0.92983  -0.89650  -0.87971
 Alpha  occ. eigenvalues --   -0.87275  -0.86222  -0.85511  -0.84126  -0.83659
 Alpha  occ. eigenvalues --   -0.81594  -0.79581  -0.78169  -0.77971  -0.76215
 Alpha  occ. eigenvalues --   -0.73736  -0.73442  -0.72822  -0.72523  -0.71148
 Alpha  occ. eigenvalues --   -0.69932  -0.69368  -0.67930  -0.66241  -0.65045
 Alpha  occ. eigenvalues --   -0.63795  -0.63203  -0.62023  -0.61690  -0.59965
 Alpha  occ. eigenvalues --   -0.58712  -0.58436  -0.57518  -0.56511  -0.55968
 Alpha  occ. eigenvalues --   -0.55707  -0.55216  -0.55115  -0.54965  -0.54203
 Alpha  occ. eigenvalues --   -0.53877  -0.53511  -0.53006  -0.52281  -0.52067
 Alpha  occ. eigenvalues --   -0.51680  -0.51422  -0.51133  -0.50850  -0.50614
 Alpha  occ. eigenvalues --   -0.50342  -0.49978  -0.49642  -0.49465  -0.48073
 Alpha  occ. eigenvalues --   -0.47668  -0.47140  -0.46761  -0.46489  -0.46049
 Alpha  occ. eigenvalues --   -0.45859  -0.45513  -0.44378  -0.43822  -0.43295
 Alpha  occ. eigenvalues --   -0.43170  -0.42749  -0.41927  -0.41849  -0.41525
 Alpha  occ. eigenvalues --   -0.41184  -0.40713  -0.39881  -0.38086  -0.37468
 Alpha  occ. eigenvalues --   -0.35660  -0.35149  -0.33891  -0.33274  -0.33180
 Alpha  occ. eigenvalues --   -0.32639  -0.31970  -0.31135  -0.29039  -0.27003
 Alpha  occ. eigenvalues --   -0.25680
 Alpha virt. eigenvalues --   -0.00249   0.03014   0.03659   0.04707   0.07082
 Alpha virt. eigenvalues --    0.07448   0.08503   0.10470   0.14823   0.15098
 Alpha virt. eigenvalues --    0.15584   0.16320   0.17435   0.17465   0.18664

 Mulliken atomic charges:
              1
     1  C   -0.198608
     2  C   -0.155441
     3  C    0.033870
     4  C    0.007610
     5  N   -0.435242
     6  C    0.031694
     7  C    0.297133
     8  C   -0.253909
     9  C    0.047964
    10  N   -0.492514
    11  C    0.708972
    12  N   -0.568220
    13  N   -0.795680
    14  C    0.287674
    15  C    0.120510
    16  C   -0.239974
    17  C   -0.190353
    18  C    0.354645
    19  C   -0.264125
    20  N   -0.766777
    21  C    0.597988
    22  C    0.018185
    23  C   -0.211496
    24  C   -0.228183
    25  C    0.114970
    26  C   -0.195480
    27  C   -0.183663
    28  C   -0.219591
    29  N   -0.401020
    30  C   -0.185378
    31  C   -0.187072
    32  N   -0.385144
    33  C   -0.350558
    34  C   -0.186527
    35  C   -0.193019
    36  O   -0.516842
    37  C   -0.607133
    38  H    0.186189
    39  H    0.185497
    40  H    0.201619
    41  H    0.181937
    42  H    0.180055
    43  H    0.188931
    44  H    0.368657
    45  H    0.160521
    46  H    0.216158
    47  H    0.193183
    48  H    0.358680
    49  H    0.186762
    50  H    0.165265
    51  H    0.183172
    52  H    0.196158
    53  H    0.136876
    54  H    0.178410
    55  H    0.158854
    56  H    0.163644
    57  H    0.158649
    58  H    0.160858
    59  H    0.136511
    60  H    0.168232
    61  H    0.168880
    62  H    0.159520
    63  H    0.158725
    64  H    0.162579
    65  H    0.175185
    66  H    0.177527
    67  H    0.183326
    68  H    0.190176
 Sum of Mulliken atomic charges =   0.00000

 Dipole moment (field-independent basis, Debye):
    X=              0.6177    Y=              6.3865    Z=              1.0065  Tot=              6.4947
 Quadrupole moment (field-independent basis, Debye-Ang):
   XX=           -182.4195   YY=           -204.7093   ZZ=           -218.5672
   XY=              7.6620   XZ=              1.9587   YZ=             -4.8063

 Normal termination of Gaussian 09 at Wed Mar 11 01:35:38 2020.
