                               Psi4 1.3.2 release

  ==> Input File <==

--------------------------------------------------------------------------
molecule {
0 1
 C   -0.592373    4.289625   -0.520832
 C    0.808362    4.280542   -0.485522
 C    1.500701    3.054201   -0.485567
 C    0.698339    1.891866   -0.595289
 N   -0.639010    1.880312   -0.628788
 C   -1.268615    3.065247   -0.577528
 C    2.994488    2.934383   -0.323019
 C    3.901788    4.005928   -0.285312
 C    5.238506    3.666027   -0.042061
 N    5.673257    2.424147    0.165477
 C    4.731500    1.460794    0.115908
 N    3.441253    1.679888   -0.132925
 N    5.169998    0.171904    0.350968
 C    4.524388   -1.111279    0.238185
 C    5.308355   -2.272664   -0.035958
 C    4.633963   -3.502960   -0.103950
 C    3.248746   -3.643513    0.037524
 C    2.483665   -2.492881    0.258852
 C    3.139512   -1.258954    0.397720
 N    1.053069   -2.456207    0.363713
 C    0.106193   -3.386513    0.002248
 C   -1.338904   -2.964081    0.154023
 C   -2.177108   -3.063580   -0.967743
 C   -3.525274   -2.711475   -0.874538
 C   -4.075261   -2.224829    0.327141
 C   -3.211590   -2.100462    1.433330
 C   -1.874155   -2.501112    1.365478
 C   -5.558937   -1.866269    0.432005
 N   -6.005014   -0.474135    0.269900
 C   -5.804029    0.185745   -1.040422
 C   -4.566763    1.113327   -1.127652
 N   -4.493276    2.127720   -0.049838
 C   -5.345775    3.313301   -0.205134
 C   -4.595049    1.418488    1.249659
 C   -5.833157    0.491820    1.378866
 O    0.385979   -4.496334   -0.419367
 C    6.813957   -2.233738   -0.236987
 H   -1.152248    5.219476   -0.489637
 H    1.332460    5.230172   -0.411181
 H    1.157647    0.910171   -0.660262
 H   -2.355290    3.033621   -0.577545
 H    3.627133    5.044886   -0.418861
 H    6.022802    4.421110    0.004661
 H    6.173191    0.170569    0.458028
 H    5.205390   -4.410803   -0.293381
 H    2.764524   -4.606185   -0.068691
 H    2.561947   -0.376407    0.623078
 H    0.678994   -1.529511    0.516851
 H   -1.764580   -3.435744   -1.902197
 H   -4.155437   -2.814221   -1.757682
 H   -3.596649   -1.721965    2.379851
 H   -1.229091   -2.441209    2.238643
 H   -6.101968   -2.451704   -0.323639
 H   -5.917151   -2.206243    1.414226
 H   -5.766591   -0.655227   -1.938681
 H   -6.999380    1.011202   -1.292414
 H   -4.521943    1.680069   -2.225311
 H   -3.290227    0.244037   -1.005167
 H   -6.407061    3.041981   -0.178428
 H   -5.132457    3.808325   -1.159847
 H   -5.143592    4.031872    0.597662
 H   -4.585167    2.283620    2.203062
 H   -3.381240    0.610817    1.381442
 H   -7.035184    1.358205    1.379339
 H   -5.830852   -0.067202    2.413920
 H    7.352784   -1.907912    0.664232
 H    7.085878   -1.545415   -1.042180
 H    7.228377   -3.208221   -0.508456
}
memory 20GB
set_num_threads(6)
psi4_io.set_default_path("/scratch/bdw2292")
set freeze_core True
E, wfn = energy('mp2/6-311++G**',return_wfn=True)
oeprop(wfn,"WIBERG_LOWDIN_INDICES")
clean()
--------------------------------------------------------------------------

    Molecular point group: c1

    Geometry (in Angstrom), charge = 0, multiplicity = 1:

       Center              X                  Y                   Z               Mass
    ------------   -----------------  -----------------  -----------------  -----------------
         C           -0.665238553176     4.318244836414    -0.504319583775    12.000000000000
         C            0.735496446824     4.309161836414    -0.469009583775    12.000000000000
         C            1.427835446824     3.082820836414    -0.469054583775    12.000000000000
         C            0.625473446824     1.920485836414    -0.578776583775    12.000000000000
         N           -0.711875553176     1.908931836414    -0.612275583775    14.003074004430
         C           -1.341480553176     3.093866836414    -0.561015583775    12.000000000000
         C            2.921622446824     2.963002836414    -0.306506583775    12.000000000000
         C            3.828922446824     4.034547836414    -0.268799583775    12.000000000000
         C            5.165640446824     3.694646836414    -0.025548583775    12.000000000000
         N            5.600391446824     2.452766836414     0.181989416225    14.003074004430
         C            4.658634446824     1.489413836414     0.132420416225    12.000000000000
         N            3.368387446824     1.708507836414    -0.116412583775    14.003074004430
         N            5.097132446824     0.200523836414     0.367480416225    14.003074004430
         C            4.451522446824    -1.082659163586     0.254697416225    12.000000000000
         C            5.235489446824    -2.244044163586    -0.019445583775    12.000000000000
         C            4.561097446824    -3.474340163586    -0.087437583775    12.000000000000
         C            3.175880446824    -3.614893163586     0.054036416225    12.000000000000
         C            2.410799446824    -2.464261163586     0.275364416225    12.000000000000
         C            3.066646446824    -1.230334163586     0.414232416225    12.000000000000
         N            0.980203446824    -2.427587163586     0.380225416225    14.003074004430
         C            0.033327446824    -3.357893163586     0.018760416225    12.000000000000
         C           -1.411769553176    -2.935461163586     0.170535416225    12.000000000000
         C           -2.249973553176    -3.034960163586    -0.951230583775    12.000000000000
         C           -3.598139553176    -2.682855163586    -0.858025583775    12.000000000000
         C           -4.148126553176    -2.196209163586     0.343653416225    12.000000000000
         C           -3.284455553176    -2.071842163586     1.449842416225    12.000000000000
         C           -1.947020553176    -2.472492163586     1.381990416225    12.000000000000
         C           -5.631802553176    -1.837649163586     0.448517416225    12.000000000000
         N           -6.077879553176    -0.445515163586     0.286412416225    14.003074004430
         C           -5.876894553176     0.214364836414    -1.023909583775    12.000000000000
         C           -4.639628553176     1.141946836414    -1.111139583775    12.000000000000
         N           -4.566141553176     2.156339836414    -0.033325583775    14.003074004430
         C           -5.418640553176     3.341920836414    -0.188621583775    12.000000000000
         C           -4.667914553176     1.447107836414     1.266171416225    12.000000000000
         C           -5.906022553176     0.520439836414     1.395378416225    12.000000000000
         O            0.313113446824    -4.467714163586    -0.402854583775    15.994914619570
         C            6.741091446824    -2.205118163586    -0.220474583775    12.000000000000
         H           -1.225113553176     5.248095836414    -0.473124583775     1.007825032230
         H            1.259594446824     5.258791836414    -0.394668583775     1.007825032230
         H            1.084781446824     0.938790836414    -0.643749583775     1.007825032230
         H           -2.428155553176     3.062240836414    -0.561032583775     1.007825032230
         H            3.554267446824     5.073505836414    -0.402348583775     1.007825032230
         H            5.949936446824     4.449729836414     0.021173416225     1.007825032230
         H            6.100325446824     0.199188836414     0.474540416225     1.007825032230
         H            5.132524446824    -4.382183163586    -0.276868583775     1.007825032230
         H            2.691658446824    -4.577565163586    -0.052178583775     1.007825032230
         H            2.489081446824    -0.347787163586     0.639590416225     1.007825032230
         H            0.606128446824    -1.500891163586     0.533363416225     1.007825032230
         H           -1.837445553176    -3.407124163586    -1.885684583775     1.007825032230
         H           -4.228302553176    -2.785601163586    -1.741169583775     1.007825032230
         H           -3.669514553176    -1.693345163586     2.396363416225     1.007825032230
         H           -1.301956553176    -2.412589163586     2.255155416225     1.007825032230
         H           -6.174833553176    -2.423084163586    -0.307126583775     1.007825032230
         H           -5.990016553176    -2.177623163586     1.430738416225     1.007825032230
         H           -5.839456553176    -0.626607163586    -1.922168583775     1.007825032230
         H           -7.072245553176     1.039821836414    -1.275901583775     1.007825032230
         H           -4.594808553176     1.708688836414    -2.208798583775     1.007825032230
         H           -3.363092553176     0.272656836414    -0.988654583775     1.007825032230
         H           -6.479926553176     3.070600836414    -0.161915583775     1.007825032230
         H           -5.205322553176     3.836944836414    -1.143334583775     1.007825032230
         H           -5.216457553176     4.060491836414     0.614174416225     1.007825032230
         H           -4.658032553176     2.312239836414     2.219574416225     1.007825032230
         H           -3.454105553176     0.639436836414     1.397954416225     1.007825032230
         H           -7.108049553176     1.386824836414     1.395851416225     1.007825032230
         H           -5.903717553176    -0.038582163586     2.430432416225     1.007825032230
         H            7.279918446824    -1.879292163586     0.680744416225     1.007825032230
         H            7.013012446824    -1.516795163586    -1.025667583775     1.007825032230
         H            7.155511446824    -3.179601163586    -0.491943583775     1.007825032230

  Charge       = 0
  Multiplicity = 1
  Basis Set: 6-311++G**
    Blend: 6-311++G**
  Basis Set: (6-311++G** AUX)
    Blend: AUG-CC-PVTZ-JKFIT

    Orbital Energies [Eh]
    ---------------------

    Doubly Occupied:

       1A    -20.524184     2A    -15.602553     3A    -15.599105
       4A    -15.571346     5A    -15.571247     6A    -15.568013
       7A    -15.567446     8A    -15.561386     9A    -11.368279
      10A    -11.364435    11A    -11.327405    12A    -11.319166
      13A    -11.317577    14A    -11.316369    15A    -11.315439
      16A    -11.308587    17A    -11.298578    18A    -11.291323
      19A    -11.288093    20A    -11.281059    21A    -11.278418
      22A    -11.278201    23A    -11.268202    24A    -11.258214
      25A    -11.258113    26A    -11.256252    27A    -11.254882
      28A    -11.251545    29A    -11.250670    30A    -11.248579
      31A    -11.246854    32A    -11.246137    33A    -11.246092
      34A    -11.238237    35A    -11.232569    36A    -11.231240
      37A    -11.225038    38A     -1.388573    39A     -1.340476
      40A     -1.264087    41A     -1.250372    42A     -1.249806
      43A     -1.238681    44A     -1.207020    45A     -1.203817
      46A     -1.162922    47A     -1.138069    48A     -1.105358
      49A     -1.067782    50A     -1.059348    51A     -1.038835
      52A     -1.035857    53A     -1.025053    54A     -1.005495
      55A     -0.994620    56A     -0.980539    57A     -0.947669
      58A     -0.931196    59A     -0.917329    60A     -0.894831
      61A     -0.867776    62A     -0.862339    63A     -0.848923
      64A     -0.843686    65A     -0.836055    66A     -0.829819
      67A     -0.822159    68A     -0.805105    69A     -0.777074
      70A     -0.748639    71A     -0.733810    72A     -0.728170
      73A     -0.712630    74A     -0.698588    75A     -0.691111
      76A     -0.675397    77A     -0.673826    78A     -0.660313
      79A     -0.658268    80A     -0.651791    81A     -0.648172
      82A     -0.645618    83A     -0.638160    84A     -0.628890
      85A     -0.625737    86A     -0.619912    87A     -0.611264
      88A     -0.608490    89A     -0.603467    90A     -0.597379
      91A     -0.595689    92A     -0.594632    93A     -0.591659
      94A     -0.586683    95A     -0.582627    96A     -0.578463
      97A     -0.577527    98A     -0.574968    99A     -0.567116
     100A     -0.549650   101A     -0.547126   102A     -0.535683
     103A     -0.531652   104A     -0.526063   105A     -0.523850
     106A     -0.517260   107A     -0.512963   108A     -0.510154
     109A     -0.509522   110A     -0.503623   111A     -0.501770
     112A     -0.493721   113A     -0.483016   114A     -0.476897
     115A     -0.465984   116A     -0.444945   117A     -0.435952
     118A     -0.429238   119A     -0.427498   120A     -0.424578
     121A     -0.407436   122A     -0.397294   123A     -0.389363
     124A     -0.384715   125A     -0.365901   126A     -0.346253
     127A     -0.344204   128A     -0.335906   129A     -0.317138
     130A     -0.312688   131A     -0.290238

  @DF-RHF Final Energy: -1572.32026302124086

   => Energetics <=

    Nuclear Repulsion Energy =           3795.4316052488384230
    One-Electron Energy =               -9689.6581721687434765
    Two-Electron Energy =                4321.9063038986641914
    Total Energy =                      -1572.3202630212408621

  Dipole Moment: [D]
     X:    -0.8756      Y:     6.1397      Z:     0.6901     Total:     6.2401

  Basis Set: (6-311++G** AUX)
    Blend: AUG-CC-PVTZ-RI
	 Reference Energy          =   -1572.3202630212408621 [Eh]
	 Singles Energy            =      -0.0000000000000000 [Eh]
	 Same-Spin Energy          =      -1.4739773175077469 [Eh]
	 Opposite-Spin Energy      =      -4.0543139332687845 [Eh]
	 Correlation Energy        =      -5.5282912507765314 [Eh]
	 Total Energy              =   -1577.8485542720172816 [Eh]

	 ================> DF-SCS-MP2 Energies <==================
	-----------------------------------------------------------
	 SCS Same-Spin Scale       =       0.3333333333333333 [-]
	 SCS Opposite-Spin Scale   =       1.2000000000000000 [-]
	 SCS Same-Spin Energy      =      -0.4913257725025822 [Eh]
	 SCS Opposite-Spin Energy  =      -4.8651767199225411 [Eh]
	 SCS Correlation Energy    =      -5.3565024924251237 [Eh]
	 SCS Total Energy          =   -1577.6767655136659414 [Eh]
	-----------------------------------------------------------

*** Psi4 exiting successfully. Buy a developer a beer!
