                               Psi4 1.3.2 release

  ==> Input File <==

--------------------------------------------------------------------------
molecule {
0 1
 C    1.023878    4.783990   -2.367381
 C    2.352798    4.548659   -1.988156
 C    2.749308    3.261798   -1.572653
 C    1.737194    2.270290   -1.598012
 N    0.465048    2.471587   -1.963448
 C    0.121800    3.714410   -2.333973
 C    4.156278    2.916130   -1.149580
 C    5.259940    3.782988   -1.190662
 C    6.481590    3.227682   -0.793495
 N    6.639929    1.973183   -0.380778
 C    5.521253    1.218845   -0.348574
 N    4.310765    1.651387   -0.712175
 N    5.691601   -0.082650    0.100005
 C    4.803754   -1.214001    0.219468
 C    5.351959   -2.522811    0.378715
 C    4.444882   -3.593146    0.458812
 C    3.054205   -3.444895    0.401125
 C    2.531130   -2.153350    0.281663
 C    3.411854   -1.063990    0.185984
 N    1.142148   -1.813588    0.214330
 C    0.020785   -2.600496    0.096543
 C   -1.287286   -1.900939   -0.218221
 C   -1.380148   -0.775245   -1.052163
 C   -2.612782   -0.156602   -1.269885
 C   -3.803914   -0.634815   -0.683272
 C   -3.690930   -1.780348    0.125425
 C   -2.464696   -2.410967    0.349896
 C   -5.106349    0.138124   -0.923933
 N   -6.198533    0.349141    0.046648
 C   -5.960938    1.337230    1.126714
 C   -5.568295    0.779492    2.516440
 N   -6.497080   -0.259707    3.020381
 C   -7.731813    0.211767    3.658708
 C   -6.627334   -1.311355    1.987111
 C   -7.007987   -0.771908    0.581666
 O    0.049229   -3.811060    0.254224
 C    6.843550   -2.805104    0.430326
 H    0.695004    5.769513   -2.683855
 H    3.050324    5.382233   -2.012304
 H    1.977503    1.246619   -1.333358
 H   -0.918167    3.853182   -2.624972
 H    5.213841    4.809442   -1.533384
 H    7.390309    3.828766   -0.814240
 H    6.668126   -0.246840    0.293758
 H    4.827654   -4.607530    0.562922
 H    2.389266   -4.297991    0.460481
 H    3.016068   -0.066145    0.087386
 H    0.959280   -0.820461    0.177158
 H   -0.482883   -0.368247   -1.512814
 H   -2.629764    0.730508   -1.903416
 H   -4.572331   -2.240758    0.556023
 H   -2.398984   -3.302520    0.968939
 H   -4.811107    1.154665   -1.224877
 H   -5.588407   -0.356543   -1.781157
 H   -4.864834    2.303849    0.713061
 H   -7.242674    2.130433    1.316974
 H   -5.442523    1.511959    3.225295
 H   -4.154125    0.066418    2.300521
 H   -8.377682    0.724228    2.936823
 H   -7.493175    0.906091    4.472562
 H   -8.281175   -0.633393    4.088710
 H   -7.753217   -2.251576    2.399441
 H   -5.862225   -1.799370    1.996623
 H   -8.497294   -0.150017    0.804539
 H   -7.115981   -1.548130   -0.149237
 H    7.311975   -2.324922    1.301052
 H    7.354493   -2.431893   -0.468505
 H    7.075261   -3.876952    0.499765
}
memory 20GB
set_num_threads(6)
psi4_io.set_default_path("/scratch/bdw2292")
set freeze_core True
E, wfn = energy('mp2/6-311++G**',return_wfn=True)
oeprop(wfn,"WIBERG_LOWDIN_INDICES")
clean()
--------------------------------------------------------------------------

    Molecular point group: c1

    Geometry (in Angstrom), charge = 0, multiplicity = 1:

       Center              X                  Y                   Z               Mass
    ------------   -----------------  -----------------  -----------------  -----------------
         C            0.782252705854     4.705243181423    -2.293438775807    12.000000000000
         C            2.111172705854     4.469912181423    -1.914213775807    12.000000000000
         C            2.507682705854     3.183051181423    -1.498710775807    12.000000000000
         C            1.495568705854     2.191543181423    -1.524069775807    12.000000000000
         N            0.223422705854     2.392840181423    -1.889505775807    14.003074004430
         C           -0.119825294146     3.635663181423    -2.260030775807    12.000000000000
         C            3.914652705854     2.837383181423    -1.075637775807    12.000000000000
         C            5.018314705854     3.704241181423    -1.116719775807    12.000000000000
         C            6.239964705854     3.148935181423    -0.719552775807    12.000000000000
         N            6.398303705854     1.894436181423    -0.306835775807    14.003074004430
         C            5.279627705854     1.140098181423    -0.274631775807    12.000000000000
         N            4.069139705854     1.572640181423    -0.638232775807    14.003074004430
         N            5.449975705854    -0.161396818577     0.173947224193    14.003074004430
         C            4.562128705854    -1.292747818577     0.293410224193    12.000000000000
         C            5.110333705854    -2.601557818577     0.452657224193    12.000000000000
         C            4.203256705854    -3.671892818577     0.532754224193    12.000000000000
         C            2.812579705854    -3.523641818577     0.475067224193    12.000000000000
         C            2.289504705854    -2.232096818577     0.355605224193    12.000000000000
         C            3.170228705854    -1.142736818577     0.259926224193    12.000000000000
         N            0.900522705854    -1.892334818577     0.288272224193    14.003074004430
         C           -0.220840294146    -2.679242818577     0.170485224193    12.000000000000
         C           -1.528911294146    -1.979685818577    -0.144278775807    12.000000000000
         C           -1.621773294146    -0.853991818577    -0.978220775807    12.000000000000
         C           -2.854407294146    -0.235348818577    -1.195942775807    12.000000000000
         C           -4.045539294146    -0.713561818577    -0.609329775807    12.000000000000
         C           -3.932555294146    -1.859094818577     0.199367224193    12.000000000000
         C           -2.706321294146    -2.489713818577     0.423838224193    12.000000000000
         C           -5.347974294146     0.059377181423    -0.849990775807    12.000000000000
         N           -6.440158294146     0.270394181423     0.120590224193    14.003074004430
         C           -6.202563294146     1.258483181423     1.200656224193    12.000000000000
         C           -5.809920294146     0.700745181423     2.590382224193    12.000000000000
         N           -6.738705294146    -0.338453818577     3.094323224193    14.003074004430
         C           -7.973438294146     0.133020181423     3.732650224193    12.000000000000
         C           -6.868959294146    -1.390101818577     2.061053224193    12.000000000000
         C           -7.249612294146    -0.850654818577     0.655608224193    12.000000000000
         O           -0.192396294146    -3.889806818577     0.328166224193    15.994914619570
         C            6.601924705854    -2.883850818577     0.504268224193    12.000000000000
         H            0.453378705854     5.690766181423    -2.609912775807     1.007825032230
         H            2.808698705854     5.303486181423    -1.938361775807     1.007825032230
         H            1.735877705854     1.167872181423    -1.259415775807     1.007825032230
         H           -1.159792294146     3.774435181423    -2.551029775807     1.007825032230
         H            4.972215705854     4.730695181423    -1.459441775807     1.007825032230
         H            7.148683705854     3.750019181423    -0.740297775807     1.007825032230
         H            6.426500705854    -0.325586818577     0.367700224193     1.007825032230
         H            4.586028705854    -4.686276818577     0.636864224193     1.007825032230
         H            2.147640705854    -4.376737818577     0.534423224193     1.007825032230
         H            2.774442705854    -0.144891818577     0.161328224193     1.007825032230
         H            0.717654705854    -0.899207818577     0.251100224193     1.007825032230
         H           -0.724508294146    -0.446993818577    -1.438871775807     1.007825032230
         H           -2.871389294146     0.651761181423    -1.829473775807     1.007825032230
         H           -4.813956294146    -2.319504818577     0.629965224193     1.007825032230
         H           -2.640609294146    -3.381266818577     1.042881224193     1.007825032230
         H           -5.052732294146     1.075918181423    -1.150934775807     1.007825032230
         H           -5.830032294146    -0.435289818577    -1.707214775807     1.007825032230
         H           -5.106459294146     2.225102181423     0.787003224193     1.007825032230
         H           -7.484299294146     2.051686181423     1.390916224193     1.007825032230
         H           -5.684148294146     1.433212181423     3.299237224193     1.007825032230
         H           -4.395750294146    -0.012328818577     2.374463224193     1.007825032230
         H           -8.619307294146     0.645481181423     3.010765224193     1.007825032230
         H           -7.734800294146     0.827344181423     4.546504224193     1.007825032230
         H           -8.522800294146    -0.712139818577     4.162652224193     1.007825032230
         H           -7.994842294146    -2.330322818577     2.473383224193     1.007825032230
         H           -6.103850294146    -1.878116818577     2.070565224193     1.007825032230
         H           -8.738919294146    -0.228763818577     0.878481224193     1.007825032230
         H           -7.357606294146    -1.626876818577    -0.075294775807     1.007825032230
         H            7.070349705854    -2.403668818577     1.374994224193     1.007825032230
         H            7.112867705854    -2.510639818577    -0.394562775807     1.007825032230
         H            6.833635705854    -3.955698818577     0.573707224193     1.007825032230

  Charge       = 0
  Multiplicity = 1
  Basis Set: 6-311++G**
    Blend: 6-311++G**
  Basis Set: (6-311++G** AUX)
    Blend: AUG-CC-PVTZ-JKFIT

    Orbital Energies [Eh]
    ---------------------

    Doubly Occupied:

       1A    -20.520952     2A    -15.604170     3A    -15.601527
       4A    -15.587372     5A    -15.584745     6A    -15.574617
       7A    -15.569553     8A    -15.561345     9A    -11.375876
      10A    -11.363502    11A    -11.346026    12A    -11.334910
      13A    -11.316930    14A    -11.314588    15A    -11.307174
      16A    -11.301750    17A    -11.301578    18A    -11.300821
      19A    -11.292858    20A    -11.289744    21A    -11.287078
      22A    -11.283057    23A    -11.280787    24A    -11.265981
      25A    -11.262430    26A    -11.255080    27A    -11.253245
      28A    -11.252886    29A    -11.249468    30A    -11.249262
      31A    -11.247080    32A    -11.245789    33A    -11.244629
      34A    -11.239847    35A    -11.235437    36A    -11.231064
      37A    -11.224694    38A     -1.386248    39A     -1.344853
      40A     -1.278944    41A     -1.253437    42A     -1.251158
      43A     -1.241470    44A     -1.210108    45A     -1.208593
      46A     -1.162482    47A     -1.139798    48A     -1.116100
      49A     -1.075747    50A     -1.061073    51A     -1.048964
      52A     -1.038712    53A     -1.023568    54A     -1.016166
      55A     -1.008025    56A     -0.984165    57A     -0.950716
      58A     -0.934366    59A     -0.926826    60A     -0.901256
      61A     -0.873092    62A     -0.871648    63A     -0.858488
      64A     -0.854530    65A     -0.843878    66A     -0.835496
      67A     -0.827169    68A     -0.810119    69A     -0.779361
      70A     -0.754549    71A     -0.740411    72A     -0.737189
      73A     -0.731622    74A     -0.721984    75A     -0.699333
      76A     -0.683209    77A     -0.673014    78A     -0.666517
      79A     -0.659524    80A     -0.656447    81A     -0.651862
      82A     -0.644644    83A     -0.638778    84A     -0.634504
      85A     -0.632596    86A     -0.624989    87A     -0.621027
      88A     -0.613717    89A     -0.610918    90A     -0.607074
      91A     -0.602627    92A     -0.600475    93A     -0.595538
      94A     -0.592068    95A     -0.588829    96A     -0.583669
      97A     -0.580879    98A     -0.579964    99A     -0.569592
     100A     -0.561805   101A     -0.550585   102A     -0.547619
     103A     -0.544673   104A     -0.532726   105A     -0.525254
     106A     -0.522794   107A     -0.513574   108A     -0.509045
     109A     -0.505094   110A     -0.497157   111A     -0.494959
     112A     -0.484953   113A     -0.482689   114A     -0.479931
     115A     -0.456297   116A     -0.452389   117A     -0.443179
     118A     -0.427526   119A     -0.425823   120A     -0.418243
     121A     -0.415012   122A     -0.400600   123A     -0.398564
     124A     -0.379570   125A     -0.374024   126A     -0.346553
     127A     -0.344888   128A     -0.338261   129A     -0.321119
     130A     -0.314529   131A     -0.290219

  @DF-RHF Final Energy: -1572.21271809414839

   => Energetics <=

    Nuclear Repulsion Energy =           3659.8749131609101823
    One-Electron Energy =               -9417.2320614146883599
    Two-Electron Energy =                4185.1444301596302466
    Total Energy =                      -1572.2127180941479310

  Dipole Moment: [D]
     X:     2.0502      Y:     6.8628      Z:    -1.6052     Total:     7.3402

  Basis Set: (6-311++G** AUX)
    Blend: AUG-CC-PVTZ-RI
	 Reference Energy          =   -1572.2127180941483857 [Eh]
	 Singles Energy            =      -0.0000000000000000 [Eh]
	 Same-Spin Energy          =      -1.4695813169727645 [Eh]
	 Opposite-Spin Energy      =      -4.0494765264116976 [Eh]
	 Correlation Energy        =      -5.5190578433844619 [Eh]
	 Total Energy              =   -1577.7317759375328023 [Eh]

	 ================> DF-SCS-MP2 Energies <==================
	-----------------------------------------------------------
	 SCS Same-Spin Scale       =       0.3333333333333333 [-]
	 SCS Opposite-Spin Scale   =       1.2000000000000000 [-]
	 SCS Same-Spin Energy      =      -0.4898604389909215 [Eh]
	 SCS Opposite-Spin Energy  =      -4.8593718316940366 [Eh]
	 SCS Correlation Energy    =      -5.3492322706849578 [Eh]
	 SCS Total Energy          =   -1577.5619503648333648 [Eh]
	-----------------------------------------------------------

*** Psi4 exiting successfully. Buy a developer a beer!
