 Gaussian 09, Revision A.02,
 Gaussian 09:  EM64L-G09RevA.02 11-Jun-2009

 --------------------------------------------------
 #P opt=(,maxcycle=400) wB97XD/6-31G* MaxDisk=100GB
 --------------------------------------------------

 --------------------------------------------------------------
 MOLECULE0 Rotatable Bond Optimization on node37.bme.utexas.edu
 --------------------------------------------------------------
 Symbolic Z-matrix:
 Charge =  0 Multiplicity = 1

 SCF Done:  E(RwB97XD) =  -1581.51462454     A.U. after   16 cycles
 SCF Done:  E(RwB97XD) =  -1581.57589274     A.U. after   13 cycles
 SCF Done:  E(RwB97XD) =  -1581.67408943     A.U. after   14 cycles
 SCF Done:  E(RwB97XD) =  -1581.71746149     A.U. after   17 cycles
 SCF Done:  E(RwB97XD) =  -1581.71899002     A.U. after   17 cycles
 SCF Done:  E(RwB97XD) =  -1581.73332865     A.U. after   17 cycles
 SCF Done:  E(RwB97XD) =  -1581.75197387     A.U. after   14 cycles
 SCF Done:  E(RwB97XD) =  -1581.75425072     A.U. after   14 cycles
 SCF Done:  E(RwB97XD) =  -1581.75512173     A.U. after   14 cycles
 SCF Done:  E(RwB97XD) =  -1581.75653620     A.U. after   16 cycles
 SCF Done:  E(RwB97XD) =  -1581.76016520     A.U. after   12 cycles
 SCF Done:  E(RwB97XD) =  -1581.76018475     A.U. after   11 cycles
 SCF Done:  E(RwB97XD) =  -1581.76018582     A.U. after   12 cycles
 SCF Done:  E(RwB97XD) =  -1581.76019188     A.U. after   10 cycles
 SCF Done:  E(RwB97XD) =  -1581.76019251     A.U. after    9 cycles
 SCF Done:  E(RwB97XD) =  -1581.76019251     A.U. after    8 cycles
 SCF Done:  E(RwB97XD) =  -1581.76019211     A.U. after    8 cycles
 SCF Done:  E(RwB97XD) =  -1581.76019148     A.U. after    7 cycles
 SCF Done:  E(RwB97XD) =  -1581.76019128     A.U. after    7 cycles
 SCF Done:  E(RwB97XD) =  -1581.76019124     A.U. after    6 cycles
 Optimization completed.
    -- Stationary point found.

                         Standard orientation:
 ---------------------------------------------------------------------
 Center     Atomic      Atomic             Coordinates (Angstroms)
 Number     Number       Type             X           Y           Z
 ---------------------------------------------------------------------
      1          6           0       -2.244183    4.986982   -0.021160
      2          6           0       -3.382173    4.195087    0.049191
      3          6           0       -3.246003    2.828144    0.292229
      4          6           0       -1.947250    2.325164    0.444244
      5          7           0       -0.847484    3.075369    0.380864
      6          6           0       -1.004753    4.381052    0.151663
      7          6           0       -4.412291    1.912905    0.373434
      8          6           0       -5.713489    2.360423    0.601497
      9          6           0       -6.706108    1.386342    0.631984
     10          7           0       -6.469642    0.091526    0.470106
     11          6           0       -5.176012   -0.236429    0.277821
     12          7           0       -4.150374    0.610820    0.219061
     13          7           0       -4.964297   -1.584293    0.142134
     14          6           0       -3.776047   -2.320889    0.012957
     15          6           0       -3.823331   -3.692553    0.330830
     16          6           0       -2.645007   -4.424033    0.213816
     17          6           0       -1.450367   -3.842577   -0.187593
     18          6           0       -1.424936   -2.484311   -0.505276
     19          6           0       -2.592974   -1.727530   -0.427986
     20          7           0       -0.185017   -1.914534   -0.862569
     21          6           0        0.072033   -0.623560   -1.255368
     22          6           0        1.527807   -0.283033   -1.372784
     23          6           0        2.487444   -1.178315   -1.848883
     24          6           0        3.819729   -0.790662   -1.935900
     25          6           0        4.223452    0.482831   -1.531645
     26          6           0        3.248233    1.378220   -1.085174
     27          6           0        1.911342    1.009831   -1.009253
     28          6           0        5.692781    0.878056   -1.549480
     29          7           0        6.492384    0.585851   -0.371667
     30          6           0        6.826969   -0.808789   -0.110266
     31          6           0        5.848847   -1.517136    0.842543
     32          7           0        5.628827   -0.783740    2.085773
     33          6           0        6.740172   -0.861940    3.017380
     34          6           0        5.205700    0.581994    1.784266
     35          6           0        6.178244    1.320460    0.848536
     36          8           0       -0.790371    0.212770   -1.466560
     37          6           0       -5.097762   -4.350578    0.794523
     38          1           0       -2.314455    6.051877   -0.215823
     39          1           0       -4.360564    4.639171   -0.108404
     40          1           0       -1.801979    1.264366    0.613234
     41          1           0       -0.091425    4.969880    0.098814
     42          1           0       -5.954267    3.402825    0.766175
     43          1           0       -7.745528    1.661767    0.799876
     44          1           0       -5.818718   -2.107967    0.258452
     45          1           0       -2.660749   -5.483539    0.456140
     46          1           0       -0.545733   -4.441997   -0.250716
     47          1           0       -2.574603   -0.683903   -0.689099
     48          1           0        0.622257   -2.476448   -0.636933
     49          1           0        2.195579   -2.168029   -2.192774
     50          1           0        4.557797   -1.489770   -2.322907
     51          1           0        3.542615    2.382288   -0.787568
     52          1           0        1.154331    1.707282   -0.657296
     53          1           0        6.181185    0.388629   -2.401388
     54          1           0        5.762706    1.958606   -1.727247
     55          1           0        6.884409   -1.343844   -1.065112
     56          1           0        7.835508   -0.837951    0.328729
     57          1           0        6.222635   -2.519756    1.084376
     58          1           0        4.875639   -1.635765    0.351942
     59          1           0        7.687347   -0.414891    2.667408
     60          1           0        6.936587   -1.914300    3.250200
     61          1           0        6.460865   -0.358639    3.949391
     62          1           0        5.097682    1.133312    2.726055
     63          1           0        4.214553    0.527299    1.318793
     64          1           0        7.121667    1.505969    1.383375
     65          1           0        5.771677    2.301315    0.577360
     66          1           0       -5.881989   -4.323556    0.025719
     67          1           0       -5.500568   -3.871491    1.695810
     68          1           0       -4.922681   -5.402834    1.033098
 ---------------------------------------------------------------------

 The electronic state is 1-A.
 Alpha  occ. eigenvalues --  -19.23545 -14.48818 -14.48262 -14.44938 -14.44686
 Alpha  occ. eigenvalues --  -14.44527 -14.43553 -14.43046 -10.40635 -10.40317
 Alpha  occ. eigenvalues --  -10.36334 -10.35157 -10.34167 -10.34165 -10.33548
 Alpha  occ. eigenvalues --  -10.32884 -10.32433 -10.32408 -10.31744 -10.31292
 Alpha  occ. eigenvalues --  -10.31250 -10.31163 -10.31082 -10.31079 -10.30835
 Alpha  occ. eigenvalues --  -10.30657 -10.30612 -10.30554 -10.30536 -10.30467
 Alpha  occ. eigenvalues --  -10.30254 -10.30131 -10.29960 -10.29902 -10.29837
 Alpha  occ. eigenvalues --  -10.29370 -10.27859  -1.13812  -1.11140  -1.04432
 Alpha  occ. eigenvalues --   -1.03911  -1.03790  -1.03295  -0.99505  -0.99457
 Alpha  occ. eigenvalues --   -0.96177  -0.94468  -0.91603  -0.88656  -0.87814
 Alpha  occ. eigenvalues --   -0.86275  -0.85857  -0.85349  -0.84660  -0.83409
 Alpha  occ. eigenvalues --   -0.81855  -0.79396  -0.77714  -0.76803  -0.75781
 Alpha  occ. eigenvalues --   -0.73211  -0.72869  -0.72256  -0.71391  -0.70549
 Alpha  occ. eigenvalues --   -0.70080  -0.69303  -0.67877  -0.66165  -0.64620
 Alpha  occ. eigenvalues --   -0.63608  -0.63089  -0.61671  -0.60637  -0.59412
 Alpha  occ. eigenvalues --   -0.58088  -0.57641  -0.56690  -0.55952  -0.55730
 Alpha  occ. eigenvalues --   -0.55235  -0.54923  -0.54639  -0.54253  -0.53838
 Alpha  occ. eigenvalues --   -0.53665  -0.53272  -0.53082  -0.52589  -0.51898
 Alpha  occ. eigenvalues --   -0.51249  -0.50998  -0.50593  -0.50299  -0.50235
 Alpha  occ. eigenvalues --   -0.50060  -0.49422  -0.48911  -0.48462  -0.48247
 Alpha  occ. eigenvalues --   -0.47426  -0.46686  -0.46312  -0.46132  -0.45461
 Alpha  occ. eigenvalues --   -0.45070  -0.44743  -0.44621  -0.44046  -0.43942
 Alpha  occ. eigenvalues --   -0.43354  -0.42548  -0.42164  -0.41436  -0.40896
 Alpha  occ. eigenvalues --   -0.40850  -0.40540  -0.39081  -0.37719  -0.36051
 Alpha  occ. eigenvalues --   -0.34440  -0.34039  -0.33664  -0.33056  -0.32438
 Alpha  occ. eigenvalues --   -0.32062  -0.31653  -0.30742  -0.28984  -0.26770
 Alpha  occ. eigenvalues --   -0.24924
 Alpha virt. eigenvalues --    0.01046   0.03342   0.04642   0.05861   0.06311
 Alpha virt. eigenvalues --    0.08275   0.08757   0.11064   0.14260   0.15579
 Alpha virt. eigenvalues --    0.16492   0.17092   0.17477   0.17842   0.19059

 Mulliken atomic charges:
              1
     1  C   -0.200739
     2  C   -0.155511
     3  C    0.023645
     4  C    0.049322
     5  N   -0.432714
     6  C    0.030777
     7  C    0.296852
     8  C   -0.251929
     9  C    0.047645
    10  N   -0.498169
    11  C    0.706683
    12  N   -0.555603
    13  N   -0.798428
    14  C    0.287403
    15  C    0.116993
    16  C   -0.228369
    17  C   -0.229463
    18  C    0.339733
    19  C   -0.225841
    20  N   -0.763494
    21  C    0.586840
    22  C    0.011219
    23  C   -0.207623
    24  C   -0.221210
    25  C    0.161000
    26  C   -0.234092
    27  C   -0.174421
    28  C   -0.264009
    29  N   -0.380777
    30  C   -0.184514
    31  C   -0.180670
    32  N   -0.385449
    33  C   -0.349766
    34  C   -0.183290
    35  C   -0.186292
    36  O   -0.502715
    37  C   -0.606185
    38  H    0.178090
    39  H    0.178503
    40  H    0.204373
    41  H    0.173643
    42  H    0.176318
    43  H    0.184179
    44  H    0.366017
    45  H    0.157737
    46  H    0.154566
    47  H    0.262584
    48  H    0.355440
    49  H    0.169770
    50  H    0.162098
    51  H    0.164824
    52  H    0.229005
    53  H    0.168821
    54  H    0.170192
    55  H    0.150700
    56  H    0.159934
    57  H    0.150968
    58  H    0.164137
    59  H    0.135409
    60  H    0.165941
    61  H    0.167862
    62  H    0.154219
    63  H    0.172905
    64  H    0.159559
    65  H    0.154198
    66  H    0.179219
    67  H    0.186056
    68  H    0.185894
 Sum of Mulliken atomic charges =   0.00000

 Dipole moment (field-independent basis, Debye):
    X=              0.1809    Y=              0.1299    Z=              0.8403  Tot=              0.8693
 Quadrupole moment (field-independent basis, Debye-Ang):
   XX=           -191.6752   YY=           -178.9297   ZZ=           -221.5746
   XY=            -11.2511   XZ=             -6.2328   YZ=              2.6696

 Normal termination of Gaussian 09 at Tue Mar  3 20:44:02 2020.
