                               Psi4 1.3.2 release

  ==> Input File <==

--------------------------------------------------------------------------
molecule {
0 1
 C   -0.265584    4.469565   -1.168291
 C    1.070769    4.375336   -0.756269
 C    1.690224    3.113561   -0.665427
 C    0.893594    2.006142   -1.047877
 N   -0.381905    2.075886   -1.451257
 C   -0.946873    3.292401   -1.498638
 C    3.109968    2.905656   -0.200153
 C    4.052310    3.923612    0.019146
 C    5.322420    3.500317    0.429921
 N    5.662385    2.228735    0.632508
 C    4.690160    1.319264    0.418454
 N    3.456304    1.623077    0.012119
 N    5.042368   -0.000302    0.651841
 C    4.347593   -1.253268    0.479911
 C    5.081919   -2.477950    0.466928
 C    4.353657   -3.664871    0.273480
 C    2.966067   -3.712590    0.090018
 C    2.254512   -2.509397    0.129672
 C    2.957101   -1.310538    0.326263
 N    0.842790   -2.360250   -0.044064
 C   -0.140616   -3.244975   -0.423563
 C   -1.489077   -2.634977   -0.760845
 C   -1.621576   -1.388736   -1.397294
 C   -2.883975   -0.835218   -1.613996
 C   -4.055668   -1.498028   -1.205091
 C   -3.911480   -2.775131   -0.627992
 C   -2.652304   -3.347861   -0.428586
 C   -5.421728   -0.823519   -1.341384
 N   -5.864392    0.109819   -0.289919
 C   -5.259541    1.460665   -0.220958
 C   -4.048627    1.583363    0.741142
 N   -4.321281    1.093388    2.114396
 C   -5.007096    2.023023    3.018935
 C   -4.877411   -0.279579    2.030781
 C   -6.092544   -0.414391    1.076117
 O    0.034334   -4.452276   -0.474653
 C    6.590765   -2.543540    0.633682
 H   -0.768076    5.430389   -1.229803
 H    1.596986    5.287130   -0.484150
 H    1.314339    1.005335   -1.053749
 H   -1.985782    3.312389   -1.824646
 H    3.861742    4.979141   -0.131987
 H    6.131190    4.207351    0.612140
 H    6.015076   -0.045392    0.915229
 H    4.886732   -4.614540    0.251496
 H    2.443078   -4.646386   -0.076913
 H    2.406921   -0.385924    0.373284
 H    0.518473   -1.409791    0.067339
 H   -0.735779   -0.834678   -1.697905
 H   -2.944957    0.153175   -2.069113
 H   -4.794384   -3.324100   -0.302192
 H   -2.551427   -4.329539    0.027274
 H   -5.444735   -0.273374   -2.292402
 H   -6.190525   -1.606339   -1.407263
 H   -4.992537    1.837113   -1.276734
 H   -6.326319    2.383046    0.293489
 H   -3.658796    2.870316    0.811291
 H   -3.079392    0.937334    0.304952
 H   -6.024433    2.231486    2.669090
 H   -4.453672    2.967071    3.081742
 H   -5.060406    1.598185    4.027926
 H   -5.191190   -0.677222    3.209255
 H   -3.814999   -1.129227    1.563647
 H   -7.202479    0.362773    1.658207
 H   -6.467595   -1.558430    1.027124
 H    6.926053   -2.161030    1.608310
 H    7.097870   -1.954812   -0.135643
 H    6.980374   -3.561550    0.553093
}
memory 20GB
set_num_threads(6)
psi4_io.set_default_path("/scratch/bdw2292")
set freeze_core True
E, wfn = energy('mp2/6-311++G**',return_wfn=True)
oeprop(wfn,"WIBERG_LOWDIN_INDICES")
clean()
--------------------------------------------------------------------------

    Molecular point group: c1

    Geometry (in Angstrom), charge = 0, multiplicity = 1:

       Center              X                  Y                   Z               Mass
    ------------   -----------------  -----------------  -----------------  -----------------
         C           -0.345458618860     4.482152850587    -1.139203058263    12.000000000000
         C            0.990894381140     4.387923850587    -0.727181058263    12.000000000000
         C            1.610349381140     3.126148850587    -0.636339058263    12.000000000000
         C            0.813719381140     2.018729850587    -1.018789058263    12.000000000000
         N           -0.461779618860     2.088473850587    -1.422169058263    14.003074004430
         C           -1.026747618860     3.304988850587    -1.469550058263    12.000000000000
         C            3.030093381140     2.918243850587    -0.171065058263    12.000000000000
         C            3.972435381140     3.936199850587     0.048233941737    12.000000000000
         C            5.242545381140     3.512904850587     0.459008941737    12.000000000000
         N            5.582510381140     2.241322850587     0.661595941737    14.003074004430
         C            4.610285381140     1.331851850587     0.447541941737    12.000000000000
         N            3.376429381140     1.635664850587     0.041206941737    14.003074004430
         N            4.962493381140     0.012285850587     0.680928941737    14.003074004430
         C            4.267718381140    -1.240680149413     0.508998941737    12.000000000000
         C            5.002044381140    -2.465362149413     0.496015941737    12.000000000000
         C            4.273782381140    -3.652283149413     0.302567941737    12.000000000000
         C            2.886192381140    -3.700002149413     0.119105941737    12.000000000000
         C            2.174637381140    -2.496809149413     0.158759941737    12.000000000000
         C            2.877226381140    -1.297950149413     0.355350941737    12.000000000000
         N            0.762915381140    -2.347662149413    -0.014976058263    14.003074004430
         C           -0.220490618860    -3.232387149413    -0.394475058263    12.000000000000
         C           -1.568951618860    -2.622389149413    -0.731757058263    12.000000000000
         C           -1.701450618860    -1.376148149413    -1.368206058263    12.000000000000
         C           -2.963849618860    -0.822630149413    -1.584908058263    12.000000000000
         C           -4.135542618860    -1.485440149413    -1.176003058263    12.000000000000
         C           -3.991354618860    -2.762543149413    -0.598904058263    12.000000000000
         C           -2.732178618860    -3.335273149413    -0.399498058263    12.000000000000
         C           -5.501602618860    -0.810931149413    -1.312296058263    12.000000000000
         N           -5.944266618860     0.122406850587    -0.260831058263    14.003074004430
         C           -5.339415618860     1.473252850587    -0.191870058263    12.000000000000
         C           -4.128501618860     1.595950850587     0.770229941737    12.000000000000
         N           -4.401155618860     1.105975850587     2.143483941737    14.003074004430
         C           -5.086970618860     2.035610850587     3.048022941737    12.000000000000
         C           -4.957285618860    -0.266991149413     2.059868941737    12.000000000000
         C           -6.172418618860    -0.401803149413     1.105204941737    12.000000000000
         O           -0.045540618860    -4.439688149413    -0.445565058263    15.994914619570
         C            6.510890381140    -2.530952149413     0.662769941737    12.000000000000
         H           -0.847950618860     5.442976850587    -1.200715058263     1.007825032230
         H            1.517111381140     5.299717850587    -0.455062058263     1.007825032230
         H            1.234464381140     1.017922850587    -1.024661058263     1.007825032230
         H           -2.065656618860     3.324976850587    -1.795558058263     1.007825032230
         H            3.781867381140     4.991728850587    -0.102899058263     1.007825032230
         H            6.051315381140     4.219938850587     0.641227941737     1.007825032230
         H            5.935201381140    -0.032804149413     0.944316941737     1.007825032230
         H            4.806857381140    -4.601952149413     0.280583941737     1.007825032230
         H            2.363203381140    -4.633798149413    -0.047825058263     1.007825032230
         H            2.327046381140    -0.373336149413     0.402371941737     1.007825032230
         H            0.438598381140    -1.397203149413     0.096426941737     1.007825032230
         H           -0.815653618860    -0.822090149413    -1.668817058263     1.007825032230
         H           -3.024831618860     0.165762850587    -2.040025058263     1.007825032230
         H           -4.874258618860    -3.311512149413    -0.273104058263     1.007825032230
         H           -2.631301618860    -4.316951149413     0.056361941737     1.007825032230
         H           -5.524609618860    -0.260786149413    -2.263314058263     1.007825032230
         H           -6.270399618860    -1.593751149413    -1.378175058263     1.007825032230
         H           -5.072411618860     1.849700850587    -1.247646058263     1.007825032230
         H           -6.406193618860     2.395633850587     0.322576941737     1.007825032230
         H           -3.738670618860     2.882903850587     0.840378941737     1.007825032230
         H           -3.159266618860     0.949921850587     0.334039941737     1.007825032230
         H           -6.104307618860     2.244073850587     2.698177941737     1.007825032230
         H           -4.533546618860     2.979658850587     3.110829941737     1.007825032230
         H           -5.140280618860     1.610772850587     4.057013941737     1.007825032230
         H           -5.271064618860    -0.664634149413     3.238342941737     1.007825032230
         H           -3.894873618860    -1.116639149413     1.592734941737     1.007825032230
         H           -7.282353618860     0.375360850587     1.687294941737     1.007825032230
         H           -6.547469618860    -1.545842149413     1.056211941737     1.007825032230
         H            6.846178381140    -2.148442149413     1.637397941737     1.007825032230
         H            7.017995381140    -1.942224149413    -0.106555058263     1.007825032230
         H            6.900499381140    -3.548962149413     0.582180941737     1.007825032230

  Charge       = 0
  Multiplicity = 1
  Basis Set: 6-311++G**
    Blend: 6-311++G**
  Basis Set: (6-311++G** AUX)
    Blend: AUG-CC-PVTZ-JKFIT

    Orbital Energies [Eh]
    ---------------------

    Doubly Occupied:

       1A    -20.522191     2A    -15.604277     3A    -15.601107
       4A    -15.587343     5A    -15.573915     6A    -15.569540
       7A    -15.568758     8A    -15.554268     9A    -11.374962
      10A    -11.364450    11A    -11.334719    12A    -11.314124
      13A    -11.312193    14A    -11.309707    15A    -11.309159
      16A    -11.301919    17A    -11.301746    18A    -11.301064
      19A    -11.299057    20A    -11.292575    21A    -11.289901
      22A    -11.280778    23A    -11.277899    24A    -11.266261
      25A    -11.257083    26A    -11.256277    27A    -11.252917
      28A    -11.252902    29A    -11.250047    30A    -11.247330
      31A    -11.245810    32A    -11.245725    33A    -11.244811
      34A    -11.240220    35A    -11.233857    36A    -11.230267
      37A    -11.225383    38A     -1.386053    39A     -1.345158
      40A     -1.278781    41A     -1.251718    42A     -1.244810
      43A     -1.241815    44A     -1.209745    45A     -1.199005
      46A     -1.161720    47A     -1.139724    48A     -1.116312
      49A     -1.075625    50A     -1.059645    51A     -1.048623
      52A     -1.037528    53A     -1.023563    54A     -1.008055
      55A     -0.992450    56A     -0.976613    57A     -0.947085
      58A     -0.927704    59A     -0.926730    60A     -0.901100
      61A     -0.873170    62A     -0.865741    63A     -0.858358
      64A     -0.841805    65A     -0.834678    66A     -0.826704
      67A     -0.825071    68A     -0.805036    69A     -0.778133
      70A     -0.754516    71A     -0.738825    72A     -0.730782
      73A     -0.722111    74A     -0.702746    75A     -0.696800
      76A     -0.682920    77A     -0.673380    78A     -0.667518
      79A     -0.658170    80A     -0.655833    81A     -0.652065
      82A     -0.642938    83A     -0.637301    84A     -0.629988
      85A     -0.622852    86A     -0.618258    87A     -0.612871
      88A     -0.607330    89A     -0.607061    90A     -0.603038
      91A     -0.600534    92A     -0.596613    93A     -0.591379
      94A     -0.587075    95A     -0.581550    96A     -0.580945
      97A     -0.579536    98A     -0.574270    99A     -0.564965
     100A     -0.561672   101A     -0.547838   102A     -0.545094
     103A     -0.530334   104A     -0.528327   105A     -0.525060
     106A     -0.522604   107A     -0.514574   108A     -0.509500
     109A     -0.508571   110A     -0.506164   111A     -0.502705
     112A     -0.494109   113A     -0.484747   114A     -0.481263
     115A     -0.455114   116A     -0.451603   117A     -0.443692
     118A     -0.435379   119A     -0.427484   120A     -0.425252
     121A     -0.414434   122A     -0.409664   123A     -0.400524
     124A     -0.381895   125A     -0.374001   126A     -0.346600
     127A     -0.345151   128A     -0.342035   129A     -0.315167
     130A     -0.312386   131A     -0.290345

  @DF-RHF Final Energy: -1572.36413185161246

   => Energetics <=

    Nuclear Repulsion Energy =           3803.6687992435240631
    One-Electron Energy =               -9705.6453564656094386
    Two-Electron Energy =                4329.6124253704729199
    Total Energy =                      -1572.3641318516129104

  Dipole Moment: [D]
     X:     0.7713      Y:     6.8365      Z:    -0.0545     Total:     6.8801

  Basis Set: (6-311++G** AUX)
    Blend: AUG-CC-PVTZ-RI
	 Reference Energy          =   -1572.3641318516124556 [Eh]
	 Singles Energy            =      -0.0000000000000000 [Eh]
	 Same-Spin Energy          =      -1.4725793215325154 [Eh]
	 Opposite-Spin Energy      =      -4.0497742064768474 [Eh]
	 Correlation Energy        =      -5.5223535280093632 [Eh]
	 Total Energy              =   -1577.8864853796217176 [Eh]

	 ================> DF-SCS-MP2 Energies <==================
	-----------------------------------------------------------
	 SCS Same-Spin Scale       =       0.3333333333333333 [-]
	 SCS Opposite-Spin Scale   =       1.2000000000000000 [-]
	 SCS Same-Spin Energy      =      -0.4908597738441718 [Eh]
	 SCS Opposite-Spin Energy  =      -4.8597290477722170 [Eh]
	 SCS Correlation Energy    =      -5.3505888216163893 [Eh]
	 SCS Total Energy          =   -1577.7147206732288396 [Eh]
	-----------------------------------------------------------

*** Psi4 exiting successfully. Buy a developer a beer!
