 Gaussian 09, Revision A.02,
 Gaussian 09:  EM64L-G09RevA.02 11-Jun-2009

 --------------------------------------------------
 #P opt=(,maxcycle=400) wB97XD/6-31G* MaxDisk=100GB
 --------------------------------------------------

 -----------------------------------------------------------------
 MOLECULE0 Rotatable Bond Optimization on g2-node38.bme.utexas.edu
 -----------------------------------------------------------------
 Symbolic Z-matrix:
 Charge =  0 Multiplicity = 1

 SCF Done:  E(RwB97XD) =  -1581.51515679     A.U. after   16 cycles
 SCF Done:  E(RwB97XD) =  -1581.57531417     A.U. after   13 cycles
 SCF Done:  E(RwB97XD) =  -1581.67444618     A.U. after   14 cycles
 SCF Done:  E(RwB97XD) =  -1581.72566034     A.U. after   14 cycles
 SCF Done:  E(RwB97XD) =  -1581.74875778     A.U. after   14 cycles
 SCF Done:  E(RwB97XD) =  -1581.75363189     A.U. after   14 cycles
 SCF Done:  E(RwB97XD) =  -1581.75578653     A.U. after   14 cycles
 SCF Done:  E(RwB97XD) =  -1581.75650222     A.U. after   14 cycles
 SCF Done:  E(RwB97XD) =  -1581.75660052     A.U. after   13 cycles
 SCF Done:  E(RwB97XD) =  -1581.75694633     A.U. after   13 cycles
 SCF Done:  E(RwB97XD) =  -1581.75758594     A.U. after   12 cycles
 SCF Done:  E(RwB97XD) =  -1581.75763082     A.U. after   12 cycles
 SCF Done:  E(RwB97XD) =  -1581.75765562     A.U. after   12 cycles
 SCF Done:  E(RwB97XD) =  -1581.75766102     A.U. after   11 cycles
 SCF Done:  E(RwB97XD) =  -1581.75766253     A.U. after   11 cycles
 SCF Done:  E(RwB97XD) =  -1581.75766321     A.U. after   10 cycles
 SCF Done:  E(RwB97XD) =  -1581.75766346     A.U. after    8 cycles
 SCF Done:  E(RwB97XD) =  -1581.75766349     A.U. after    7 cycles
 SCF Done:  E(RwB97XD) =  -1581.75766351     A.U. after    7 cycles
 SCF Done:  E(RwB97XD) =  -1581.75766355     A.U. after    6 cycles
 Optimization completed.
    -- Stationary point found.

                         Standard orientation:
 ---------------------------------------------------------------------
 Center     Atomic      Atomic             Coordinates (Angstroms)
 Number     Number       Type             X           Y           Z
 ---------------------------------------------------------------------
      1          6           0       -8.418754   -3.557312    0.180105
      2          6           0       -7.071518   -3.228227    0.118273
      3          6           0       -6.707732   -1.904776   -0.131265
      4          6           0       -7.738162   -0.972753   -0.301419
      5          7           0       -9.033961   -1.274785   -0.248689
      6          6           0       -9.357361   -2.548519   -0.010707
      7          6           0       -5.291474   -1.471847   -0.216079
      8          6           0       -4.257222   -2.360383   -0.539712
      9          6           0       -2.981935   -1.826473   -0.585178
     10          7           0       -2.708652   -0.543789   -0.346915
     11          6           0       -3.765588    0.224920   -0.059415
     12          7           0       -5.045431   -0.185603    0.017579
     13          7           0       -3.611066    1.559413    0.194060
     14          6           0       -2.481307    2.391592    0.239814
     15          6           0       -2.703566    3.754597    0.528709
     16          6           0       -1.596528    4.592701    0.585023
     17          6           0       -0.295714    4.149199    0.369849
     18          6           0       -0.099326    2.800581    0.082844
     19          6           0       -1.187900    1.926342    0.018506
     20          7           0        1.165146    2.235513   -0.174790
     21          6           0        2.403698    2.811023   -0.049130
     22          6           0        3.542071    1.909803   -0.437271
     23          6           0        3.437410    0.934569   -1.432041
     24          6           0        4.529908    0.134383   -1.745095
     25          6           0        5.740969    0.273499   -1.065628
     26          6           0        5.847858    1.280059   -0.102650
     27          6           0        4.766225    2.093831    0.206428
     28          6           0        6.905584   -0.666063   -1.343241
     29          7           0        6.967702   -1.911304   -0.596604
     30          6           0        6.003630   -2.952441   -0.931606
     31          6           0        4.734352   -2.931463   -0.062467
     32          7           0        5.020913   -2.915570    1.369057
     33          6           0        5.463878   -4.194754    1.894518
     34          6           0        5.918250   -1.805783    1.680824
     35          6           0        7.205795   -1.817170    0.839228
     36          8           0        2.598536    3.945739    0.354739
     37          6           0       -4.090902    4.294095    0.770005
     38          1           0       -8.737664   -4.574754    0.379928
     39          1           0       -6.316254   -3.990376    0.286391
     40          1           0       -7.487541    0.066676   -0.492660
     41          1           0      -10.421473   -2.769778    0.033919
     42          1           0       -4.435834   -3.403001   -0.769336
     43          1           0       -2.127097   -2.453348   -0.830775
     44          1           0       -4.496848    1.998207    0.395973
     45          1           0       -1.754713    5.645044    0.806638
     46          1           0        0.544403    4.825522    0.429399
     47          1           0       -1.040425    0.877077   -0.202042
     48          1           0        1.153493    1.245766   -0.370750
     49          1           0        2.515044    0.819088   -1.995697
     50          1           0        4.439383   -0.613547   -2.529553
     51          1           0        6.793340    1.424406    0.415205
     52          1           0        4.850769    2.881372    0.948098
     53          1           0        6.905154   -0.926548   -2.408974
     54          1           0        7.842810   -0.127907   -1.153287
     55          1           0        5.741597   -2.863796   -1.992179
     56          1           0        6.502767   -3.925520   -0.810840
     57          1           0        4.111025   -3.805231   -0.289208
     58          1           0        4.145585   -2.035371   -0.291126
     59          1           0        6.413114   -4.578133    1.480170
     60          1           0        4.691218   -4.947331    1.702177
     61          1           0        5.586557   -4.110271    2.979688
     62          1           0        6.166299   -1.842367    2.748463
     63          1           0        5.369673   -0.873705    1.501722
     64          1           0        7.823175   -2.677634    1.137534
     65          1           0        7.799204   -0.918439    1.042074
     66          1           0       -4.571329    3.828472    1.641082
     67          1           0       -4.750398    4.143736   -0.095092
     68          1           0       -4.053711    5.369276    0.961907
 ---------------------------------------------------------------------

 The electronic state is 1-A.
 Alpha  occ. eigenvalues --  -19.23835 -14.49108 -14.48930 -14.45876 -14.45799
 Alpha  occ. eigenvalues --  -14.45514 -14.43982 -14.43431 -10.41655 -10.40643
 Alpha  occ. eigenvalues --  -10.37349 -10.36104 -10.34702 -10.34393 -10.34203
 Alpha  occ. eigenvalues --  -10.34118 -10.33393 -10.32874 -10.32830 -10.32040
 Alpha  occ. eigenvalues --  -10.31769 -10.31686 -10.31685 -10.31550 -10.31526
 Alpha  occ. eigenvalues --  -10.31433 -10.31087 -10.31054 -10.30956 -10.30905
 Alpha  occ. eigenvalues --  -10.30882 -10.30836 -10.30326 -10.30025 -10.29494
 Alpha  occ. eigenvalues --  -10.28971 -10.28260  -1.13996  -1.12110  -1.05379
 Alpha  occ. eigenvalues --   -1.04482  -1.04201  -1.03830  -1.00482  -0.99923
 Alpha  occ. eigenvalues --   -0.96784  -0.94847  -0.92400  -0.89396  -0.88370
 Alpha  occ. eigenvalues --   -0.86927  -0.86375  -0.85824  -0.85248  -0.83768
 Alpha  occ. eigenvalues --   -0.82273  -0.79768  -0.78195  -0.77522  -0.76439
 Alpha  occ. eigenvalues --   -0.73617  -0.73258  -0.73109  -0.72545  -0.71281
 Alpha  occ. eigenvalues --   -0.70665  -0.69532  -0.68363  -0.66307  -0.65184
 Alpha  occ. eigenvalues --   -0.64057  -0.63280  -0.62733  -0.61368  -0.60205
 Alpha  occ. eigenvalues --   -0.58497  -0.58322  -0.57254  -0.56999  -0.55839
 Alpha  occ. eigenvalues --   -0.55619  -0.55451  -0.55281  -0.54768  -0.54398
 Alpha  occ. eigenvalues --   -0.54213  -0.53715  -0.53208  -0.53007  -0.52481
 Alpha  occ. eigenvalues --   -0.51674  -0.51503  -0.51430  -0.50966  -0.50670
 Alpha  occ. eigenvalues --   -0.50441  -0.49913  -0.49794  -0.49514  -0.48778
 Alpha  occ. eigenvalues --   -0.47361  -0.47084  -0.46919  -0.46631  -0.46104
 Alpha  occ. eigenvalues --   -0.45611  -0.45518  -0.45164  -0.44500  -0.43957
 Alpha  occ. eigenvalues --   -0.43308  -0.43118  -0.42791  -0.41907  -0.41524
 Alpha  occ. eigenvalues --   -0.41314  -0.41200  -0.39923  -0.38174  -0.37068
 Alpha  occ. eigenvalues --   -0.35196  -0.34831  -0.34012  -0.33665  -0.33470
 Alpha  occ. eigenvalues --   -0.32921  -0.32451  -0.31178  -0.29301  -0.26953
 Alpha  occ. eigenvalues --   -0.25326
 Alpha virt. eigenvalues --    0.00194   0.02800   0.03623   0.04854   0.05692
 Alpha virt. eigenvalues --    0.07772   0.08203   0.10865   0.14324   0.15255
 Alpha virt. eigenvalues --    0.16235   0.16759   0.17017   0.17538   0.18739

 Mulliken atomic charges:
              1
     1  C   -0.195845
     2  C   -0.158411
     3  C    0.036980
     4  C    0.011448
     5  N   -0.421687
     6  C    0.025480
     7  C    0.286549
     8  C   -0.252055
     9  C    0.054490
    10  N   -0.496298
    11  C    0.725536
    12  N   -0.571480
    13  N   -0.811908
    14  C    0.302192
    15  C    0.115190
    16  C   -0.238804
    17  C   -0.192959
    18  C    0.357760
    19  C   -0.279010
    20  N   -0.765641
    21  C    0.597286
    22  C    0.017417
    23  C   -0.209418
    24  C   -0.219329
    25  C    0.158487
    26  C   -0.222588
    27  C   -0.175781
    28  C   -0.264093
    29  N   -0.380744
    30  C   -0.184713
    31  C   -0.180786
    32  N   -0.385284
    33  C   -0.350125
    34  C   -0.182721
    35  C   -0.186498
    36  O   -0.512512
    37  C   -0.612585
    38  H    0.182096
    39  H    0.182374
    40  H    0.197702
    41  H    0.181236
    42  H    0.180062
    43  H    0.184717
    44  H    0.370050
    45  H    0.160838
    46  H    0.216001
    47  H    0.204901
    48  H    0.358755
    49  H    0.174251
    50  H    0.164686
    51  H    0.167254
    52  H    0.201012
    53  H    0.170623
    54  H    0.171672
    55  H    0.151193
    56  H    0.160979
    57  H    0.151109
    58  H    0.163740
    59  H    0.136025
    60  H    0.166218
    61  H    0.168407
    62  H    0.154767
    63  H    0.170052
    64  H    0.161046
    65  H    0.154276
    66  H    0.182756
    67  H    0.182036
    68  H    0.191630
 Sum of Mulliken atomic charges =   0.00000

 Dipole moment (field-independent basis, Debye):
    X=             -0.1695    Y=             -5.6403    Z=             -0.7519  Tot=              5.6927
 Quadrupole moment (field-independent basis, Debye-Ang):
   XX=           -210.4017   YY=           -203.7407   ZZ=           -215.8436
   XY=              5.3128   XZ=             -2.2282   YZ=              2.9993

 Normal termination of Gaussian 09 at Thu Feb 27 16:55:19 2020.
