 Gaussian 09, Revision A.02,
 Gaussian 09:  EM64L-G09RevA.02 11-Jun-2009

 --------------------------------------------------
 #P opt=(,maxcycle=400) wB97XD/6-31G* MaxDisk=100GB
 --------------------------------------------------

 --------------------------------------------------------------
 MOLECULE0 Rotatable Bond Optimization on node37.bme.utexas.edu
 --------------------------------------------------------------
 Symbolic Z-matrix:
 Charge =  0 Multiplicity = 1

 SCF Done:  E(RwB97XD) =  -1581.49012416     A.U. after   16 cycles
 SCF Done:  E(RwB97XD) =  -1581.55077237     A.U. after   14 cycles
 SCF Done:  E(RwB97XD) =  -1581.65011744     A.U. after   15 cycles
 SCF Done:  E(RwB97XD) =  -1581.69979789     A.U. after   15 cycles
 SCF Done:  E(RwB97XD) =  -1581.72201509     A.U. after   17 cycles
 SCF Done:  E(RwB97XD) =  -1581.73240968     A.U. after   16 cycles
 SCF Done:  E(RwB97XD) =  -1581.74083479     A.U. after   17 cycles
 SCF Done:  E(RwB97XD) =  -1581.75105887     A.U. after   17 cycles
 SCF Done:  E(RwB97XD) =  -1581.75724970     A.U. after   17 cycles
 SCF Done:  E(RwB97XD) =  -1581.75903694     A.U. after   17 cycles
 SCF Done:  E(RwB97XD) =  -1581.76309531     A.U. after   13 cycles
 SCF Done:  E(RwB97XD) =  -1581.76306711     A.U. after   13 cycles
 SCF Done:  E(RwB97XD) =  -1581.76318214     A.U. after   12 cycles
 SCF Done:  E(RwB97XD) =  -1581.76319615     A.U. after   12 cycles
 SCF Done:  E(RwB97XD) =  -1581.76320629     A.U. after   12 cycles
 SCF Done:  E(RwB97XD) =  -1581.76321036     A.U. after   10 cycles
 SCF Done:  E(RwB97XD) =  -1581.76321383     A.U. after    9 cycles
 SCF Done:  E(RwB97XD) =  -1581.76321524     A.U. after    8 cycles
 SCF Done:  E(RwB97XD) =  -1581.76321582     A.U. after    8 cycles
 SCF Done:  E(RwB97XD) =  -1581.76321599     A.U. after    7 cycles
 Optimization completed.
    -- Stationary point found.

                         Standard orientation:
 ---------------------------------------------------------------------
 Center     Atomic      Atomic             Coordinates (Angstroms)
 Number     Number       Type             X           Y           Z
 ---------------------------------------------------------------------
      1          6           0       -0.473927    4.274772   -0.772464
      2          6           0        0.870602    4.192225   -0.431100
      3          6           0        1.547044    2.990173   -0.631822
      4          6           0        0.820646    1.925930   -1.182560
      5          7           0       -0.468285    1.989563   -1.511764
      6          6           0       -1.097231    3.149676   -1.301125
      7          6           0        2.968888    2.789135   -0.253987
      8          6           0        3.899977    3.819108   -0.155347
      9          6           0        5.185879    3.446694    0.234771
     10          7           0        5.545133    2.197482    0.496812
     11          6           0        4.571634    1.275064    0.355270
     12          7           0        3.311586    1.523624   -0.001338
     13          7           0        4.960216   -0.010796    0.614904
     14          6           0        4.244786   -1.216983    0.495356
     15          6           0        4.968729   -2.426548    0.479866
     16          6           0        4.248313   -3.609414    0.337727
     17          6           0        2.862601   -3.650779    0.194463
     18          6           0        2.171160   -2.443331    0.216767
     19          6           0        2.859245   -1.243401    0.394313
     20          7           0        0.784691   -2.305389    0.038463
     21          6           0       -0.155419   -3.232676   -0.331367
     22          6           0       -1.474875   -2.601211   -0.675680
     23          6           0       -1.550019   -1.358382   -1.311457
     24          6           0       -2.782353   -0.778934   -1.574884
     25          6           0       -3.965686   -1.409862   -1.191289
     26          6           0       -3.884006   -2.677248   -0.607602
     27          6           0       -2.653911   -3.274324   -0.357680
     28          6           0       -5.302645   -0.703871   -1.347937
     29          7           0       -5.692271    0.226482   -0.299169
     30          6           0       -5.024858    1.522950   -0.247221
     31          6           0       -3.814687    1.577541    0.702991
     32          7           0       -4.111886    1.068759    2.039116
     33          6           0       -4.900167    1.978114    2.851675
     34          6           0       -4.678507   -0.274457    1.940287
     35          6           0       -5.913842   -0.339663    1.026854
     36          8           0        0.036455   -4.436563   -0.364568
     37          6           0        6.471488   -2.442197    0.599877
     38          1           0       -1.033373    5.191457   -0.619966
     39          1           0        1.375629    5.045445    0.012562
     40          1           0        1.324824    0.980546   -1.366213
     41          1           0       -2.152185    3.176384   -1.565518
     42          1           0        3.661058    4.850770   -0.381904
     43          1           0        5.967514    4.196831    0.337154
     44          1           0        5.941554   -0.076849    0.840358
     45          1           0        4.796664   -4.548020    0.324133
     46          1           0        2.333831   -4.584846    0.063017
     47          1           0        2.314061   -0.312120    0.420292
     48          1           0        0.446122   -1.358940    0.129548
     49          1           0       -0.653589   -0.833569   -1.628702
     50          1           0       -2.810258    0.190405   -2.066017
     51          1           0       -4.798733   -3.196890   -0.330861
     52          1           0       -2.590202   -4.256782    0.099448
     53          1           0       -5.308592   -0.148690   -2.293761
     54          1           0       -6.095144   -1.459566   -1.422054
     55          1           0       -4.723313    1.804255   -1.263348
     56          1           0       -5.765887    2.268310    0.078968
     57          1           0       -3.457108    2.611339    0.792501
     58          1           0       -2.990074    0.982147    0.295623
     59          1           0       -5.910248    2.206119    2.467910
     60          1           0       -4.362086    2.927289    2.951780
     61          1           0       -5.015814    1.551186    3.853882
     62          1           0       -4.936897   -0.622921    2.947642
     63          1           0       -3.896989   -0.938203    1.552599
     64          1           0       -6.742222    0.209173    1.499082
     65          1           0       -6.248099   -1.377312    0.916001
     66          1           0        6.816687   -2.031011    1.558391
     67          1           0        6.951891   -1.865370   -0.201121
     68          1           0        6.851896   -3.464750    0.535793
 ---------------------------------------------------------------------

 The electronic state is 1-A.
 Alpha  occ. eigenvalues --  -19.23411 -14.49281 -14.48321 -14.46751 -14.46096
 Alpha  occ. eigenvalues --  -14.45764 -14.43617 -14.43135 -10.41778 -10.40081
 Alpha  occ. eigenvalues --  -10.37615 -10.36338 -10.35325 -10.35085 -10.34623
 Alpha  occ. eigenvalues --  -10.34135 -10.34016 -10.33623 -10.32863 -10.32367
 Alpha  occ. eigenvalues --  -10.31861 -10.31492 -10.31179 -10.30936 -10.30707
 Alpha  occ. eigenvalues --  -10.30687 -10.30676 -10.30585 -10.30533 -10.30403
 Alpha  occ. eigenvalues --  -10.30377 -10.30220 -10.30021 -10.29974 -10.29575
 Alpha  occ. eigenvalues --  -10.28740 -10.28405  -1.13443  -1.12295  -1.06322
 Alpha  occ. eigenvalues --   -1.04565  -1.03828  -1.03634  -1.00715  -0.99557
 Alpha  occ. eigenvalues --   -0.96086  -0.94671  -0.93098  -0.89778  -0.88125
 Alpha  occ. eigenvalues --   -0.87389  -0.86228  -0.85399  -0.84542  -0.83783
 Alpha  occ. eigenvalues --   -0.81888  -0.79581  -0.78270  -0.77798  -0.76320
 Alpha  occ. eigenvalues --   -0.73881  -0.73300  -0.73025  -0.72621  -0.70871
 Alpha  occ. eigenvalues --   -0.70314  -0.69615  -0.68039  -0.66413  -0.65150
 Alpha  occ. eigenvalues --   -0.63656  -0.63409  -0.62228  -0.61761  -0.60211
 Alpha  occ. eigenvalues --   -0.58848  -0.58045  -0.57570  -0.56611  -0.56100
 Alpha  occ. eigenvalues --   -0.55817  -0.55236  -0.55134  -0.54965  -0.54255
 Alpha  occ. eigenvalues --   -0.53867  -0.53238  -0.53154  -0.52612  -0.52175
 Alpha  occ. eigenvalues --   -0.51912  -0.51511  -0.51370  -0.50999  -0.50575
 Alpha  occ. eigenvalues --   -0.50365  -0.50116  -0.49975  -0.49497  -0.48335
 Alpha  occ. eigenvalues --   -0.47217  -0.46907  -0.46619  -0.46319  -0.46211
 Alpha  occ. eigenvalues --   -0.45762  -0.45235  -0.44798  -0.44044  -0.43932
 Alpha  occ. eigenvalues --   -0.43328  -0.43016  -0.42142  -0.41766  -0.41439
 Alpha  occ. eigenvalues --   -0.40963  -0.40776  -0.39912  -0.38187  -0.37592
 Alpha  occ. eigenvalues --   -0.35821  -0.35293  -0.34002  -0.33446  -0.33373
 Alpha  occ. eigenvalues --   -0.32818  -0.31904  -0.30772  -0.29115  -0.27080
 Alpha  occ. eigenvalues --   -0.24996
 Alpha virt. eigenvalues --   -0.00291   0.02872   0.03585   0.04480   0.06433
 Alpha virt. eigenvalues --    0.07257   0.08204   0.10369   0.13887   0.14815
 Alpha virt. eigenvalues --    0.15728   0.16387   0.17252   0.17441   0.18252

 Mulliken atomic charges:
              1
     1  C   -0.197839
     2  C   -0.154403
     3  C    0.035526
     4  C    0.009601
     5  N   -0.437522
     6  C    0.035727
     7  C    0.295095
     8  C   -0.254754
     9  C    0.049011
    10  N   -0.493023
    11  C    0.714257
    12  N   -0.568340
    13  N   -0.801911
    14  C    0.291391
    15  C    0.119875
    16  C   -0.240377
    17  C   -0.191305
    18  C    0.358185
    19  C   -0.269699
    20  N   -0.758011
    21  C    0.585774
    22  C    0.015193
    23  C   -0.205375
    24  C   -0.217892
    25  C    0.155971
    26  C   -0.223074
    27  C   -0.178388
    28  C   -0.263559
    29  N   -0.382227
    30  C   -0.183898
    31  C   -0.181772
    32  N   -0.385722
    33  C   -0.349274
    34  C   -0.182630
    35  C   -0.186526
    36  O   -0.513301
    37  C   -0.607374
    38  H    0.186142
    39  H    0.186731
    40  H    0.198091
    41  H    0.179047
    42  H    0.180748
    43  H    0.189492
    44  H    0.369206
    45  H    0.160820
    46  H    0.213086
    47  H    0.199369
    48  H    0.361565
    49  H    0.185471
    50  H    0.172051
    51  H    0.163617
    52  H    0.195615
    53  H    0.170275
    54  H    0.168919
    55  H    0.148144
    56  H    0.158360
    57  H    0.141659
    58  H    0.174898
    59  H    0.135264
    60  H    0.164121
    61  H    0.167872
    62  H    0.153492
    63  H    0.172932
    64  H    0.159409
    65  H    0.154988
    66  H    0.178048
    67  H    0.182740
    68  H    0.190420
 Sum of Mulliken atomic charges =   0.00000

 Dipole moment (field-independent basis, Debye):
    X=              0.5811    Y=              6.5723    Z=              0.4305  Tot=              6.6119
 Quadrupole moment (field-independent basis, Debye-Ang):
   XX=           -193.2975   YY=           -202.5115   ZZ=           -220.4822
   XY=              3.1041   XZ=             -1.2926   YZ=             -5.2248

 Normal termination of Gaussian 09 at Wed Mar  4 08:54:26 2020.
