                               Psi4 1.3.2 release

  ==> Input File <==

--------------------------------------------------------------------------
molecule {
0 1
 C   -6.293386   -4.353102    0.953143
 C   -5.681609   -3.557701   -0.024791
 C   -5.458872   -2.187481    0.218916
 C   -5.888591   -1.705034    1.480273
 N   -6.475168   -2.451946    2.425054
 C   -6.669854   -3.751254    2.158504
 C   -4.802827   -1.261525   -0.773919
 C   -4.336554   -1.631601   -2.047988
 C   -3.752114   -0.610689   -2.806543
 N   -3.614171    0.645551   -2.392639
 C   -4.095175    0.901339   -1.160872
 N   -4.672111    0.011742   -0.355126
 N   -3.959759    2.192167   -0.734858
 C   -2.801403    2.980818   -0.429683
 C   -2.971043    4.345790   -0.048358
 C   -1.809710    5.074169    0.252754
 C   -0.519609    4.536461    0.200097
 C   -0.368719    3.197491   -0.178814
 C   -1.510211    2.437803   -0.492844
 N    0.884053    2.508912   -0.297384
 C    2.157730    2.894823    0.054034
 C    3.300678    1.937321   -0.222404
 C    3.318661    1.043324   -1.305571
 C    4.408303    0.192216   -1.503809
 C    5.519939    0.209847   -0.640583
 C    5.496322    1.122218    0.431546
 C    4.415092    1.983154    0.632019
 C    6.697228   -0.746416   -0.839757
 N    6.646847   -2.083955   -0.222803
 C    5.724817   -3.095055   -0.787454
 C    4.346118   -3.176066   -0.083849
 N    4.418632   -3.350245    1.384918
 C    4.630226   -4.716908    1.876595
 C    5.304772   -2.302717    1.946177
 C    6.688707   -2.189404    1.254134
 O    2.390749    3.965764    0.591465
 C   -4.325520    5.026131    0.053238
 H   -6.473037   -5.411178    0.787604
 H   -5.389715   -4.029054   -0.960078
 H   -5.745331   -0.658374    1.733028
 H   -7.146800   -4.330151    2.947518
 H   -4.408430   -2.633764   -2.452192
 H   -3.367302   -0.817926   -3.804555
 H   -4.865927    2.631911   -0.668662
 H   -1.898123    6.117517    0.552969
 H    0.347809    5.137638    0.443731
 H   -1.410240    1.404943   -0.798495
 H    0.799281    1.545046   -0.586949
 H    2.481356    1.024387   -1.998646
 H    4.388218   -0.496348   -2.348523
 H    6.336124    1.170360    1.124571
 H    4.410962    2.691657    1.456647
 H    6.844735   -0.897899   -1.919095
 H    7.606960   -0.256826   -0.462607
 H    5.641662   -2.983723   -1.828756
 H    6.395651   -4.504236   -0.544583
 H    3.620763   -4.315098   -0.656096
 H    3.671287   -2.118096   -0.317477
 H    5.617187   -5.092838    1.584210
 H    3.863060   -5.387741    1.473391
 H    4.553758   -4.740648    2.969716
 H    5.444186   -2.492495    3.157200
 H    4.610901   -1.020388    1.773417
 H    7.433543   -3.545222    1.593959
 H    7.293147   -1.386814    1.678976
 H   -4.971303    4.524809    0.788108
 H   -4.852023    5.017896   -0.911634
 H   -4.255851    6.077711    0.363927
}
memory 20GB
set_num_threads(6)
psi4_io.set_default_path("/scratch/bdw2292")
set freeze_core True
E, wfn = energy('mp2/6-311++G**',return_wfn=True)
oeprop(wfn,"WIBERG_LOWDIN_INDICES")
clean()
--------------------------------------------------------------------------

    Molecular point group: c1

    Geometry (in Angstrom), charge = 0, multiplicity = 1:

       Center              X                  Y                   Z               Mass
    ------------   -----------------  -----------------  -----------------  -----------------
         C           -6.271002231056    -4.432738032855     0.975578153029    12.000000000000
         C           -5.659225231056    -3.637337032855    -0.002355846971    12.000000000000
         C           -5.436488231056    -2.267117032855     0.241351153029    12.000000000000
         C           -5.866207231056    -1.784670032855     1.502708153029    12.000000000000
         N           -6.452784231056    -2.531582032855     2.447489153029    14.003074004430
         C           -6.647470231056    -3.830890032855     2.180939153029    12.000000000000
         C           -4.780443231056    -1.341161032855    -0.751483846971    12.000000000000
         C           -4.314170231056    -1.711237032855    -2.025552846971    12.000000000000
         C           -3.729730231056    -0.690325032855    -2.784107846971    12.000000000000
         N           -3.591787231056     0.565914967145    -2.370203846971    14.003074004430
         C           -4.072791231056     0.821702967145    -1.138436846971    12.000000000000
         N           -4.649727231056    -0.067894032855    -0.332690846971    14.003074004430
         N           -3.937375231056     2.112530967145    -0.712422846971    14.003074004430
         C           -2.779019231056     2.901181967145    -0.407247846971    12.000000000000
         C           -2.948659231056     4.266153967145    -0.025922846971    12.000000000000
         C           -1.787326231056     4.994532967145     0.275189153029    12.000000000000
         C           -0.497225231056     4.456824967145     0.222532153029    12.000000000000
         C           -0.346335231056     3.117854967145    -0.156378846971    12.000000000000
         C           -1.487827231056     2.358166967145    -0.470408846971    12.000000000000
         N            0.906436768944     2.429275967145    -0.274948846971    14.003074004430
         C            2.180113768944     2.815186967145     0.076469153029    12.000000000000
         C            3.323061768944     1.857684967145    -0.199968846971    12.000000000000
         C            3.341044768944     0.963687967145    -1.283135846971    12.000000000000
         C            4.430686768944     0.112579967145    -1.481373846971    12.000000000000
         C            5.542322768944     0.130210967145    -0.618147846971    12.000000000000
         C            5.518705768944     1.042581967145     0.453981153029    12.000000000000
         C            4.437475768944     1.903517967145     0.654454153029    12.000000000000
         C            6.719611768944    -0.826052032855    -0.817321846971    12.000000000000
         N            6.669230768944    -2.163591032855    -0.200367846971    14.003074004430
         C            5.747200768944    -3.174691032855    -0.765018846971    12.000000000000
         C            4.368501768944    -3.255702032855    -0.061413846971    12.000000000000
         N            4.441015768944    -3.429881032855     1.407353153029    14.003074004430
         C            4.652609768944    -4.796544032855     1.899030153029    12.000000000000
         C            5.327155768944    -2.382353032855     1.968612153029    12.000000000000
         C            6.711090768944    -2.269040032855     1.276569153029    12.000000000000
         O            2.413132768944     3.886127967145     0.613900153029    15.994914619570
         C           -4.303136231056     4.946494967145     0.075673153029    12.000000000000
         H           -6.450653231056    -5.490814032855     0.810039153029     1.007825032230
         H           -5.367331231056    -4.108690032855    -0.937642846971     1.007825032230
         H           -5.722947231056    -0.738010032855     1.755463153029     1.007825032230
         H           -7.124416231056    -4.409787032855     2.969953153029     1.007825032230
         H           -4.386046231056    -2.713400032855    -2.429756846971     1.007825032230
         H           -3.344918231056    -0.897562032855    -3.782119846971     1.007825032230
         H           -4.843543231056     2.552274967145    -0.646226846971     1.007825032230
         H           -1.875739231056     6.037880967145     0.575404153029     1.007825032230
         H            0.370192768944     5.058001967145     0.466166153029     1.007825032230
         H           -1.387856231056     1.325306967145    -0.776059846971     1.007825032230
         H            0.821664768944     1.465409967145    -0.564513846971     1.007825032230
         H            2.503739768944     0.944750967145    -1.976210846971     1.007825032230
         H            4.410601768944    -0.575984032855    -2.326087846971     1.007825032230
         H            6.358507768944     1.090723967145     1.147006153029     1.007825032230
         H            4.433345768944     2.612020967145     1.479082153029     1.007825032230
         H            6.867118768944    -0.977535032855    -1.896659846971     1.007825032230
         H            7.629343768944    -0.336462032855    -0.440171846971     1.007825032230
         H            5.664045768944    -3.063359032855    -1.806320846971     1.007825032230
         H            6.418034768944    -4.583872032855    -0.522147846971     1.007825032230
         H            3.643146768944    -4.394734032855    -0.633660846971     1.007825032230
         H            3.693670768944    -2.197732032855    -0.295041846971     1.007825032230
         H            5.639570768944    -5.172474032855     1.606645153029     1.007825032230
         H            3.885443768944    -5.467377032855     1.495826153029     1.007825032230
         H            4.576141768944    -4.820284032855     2.992151153029     1.007825032230
         H            5.466569768944    -2.572131032855     3.179635153029     1.007825032230
         H            4.633284768944    -1.100024032855     1.795852153029     1.007825032230
         H            7.455926768944    -3.624858032855     1.616394153029     1.007825032230
         H            7.315530768944    -1.466450032855     1.701411153029     1.007825032230
         H           -4.948919231056     4.445172967145     0.810543153029     1.007825032230
         H           -4.829639231056     4.938259967145    -0.889198846971     1.007825032230
         H           -4.233467231056     5.998074967145     0.386362153029     1.007825032230

  Charge       = 0
  Multiplicity = 1
  Basis Set: 6-311++G**
    Blend: 6-311++G**
  Basis Set: (6-311++G** AUX)
    Blend: AUG-CC-PVTZ-JKFIT

    Orbital Energies [Eh]
    ---------------------

    Doubly Occupied:

       1A    -20.524576     2A    -15.605725     3A    -15.579297
       4A    -15.578007     5A    -15.577615     6A    -15.577449
       7A    -15.577043     8A    -15.560467     9A    -11.368584
      10A    -11.365028    11A    -11.332748    12A    -11.317294
      13A    -11.313603    14A    -11.313030    15A    -11.311722
      16A    -11.308196    17A    -11.301518    18A    -11.294552
      19A    -11.293405    20A    -11.291256    21A    -11.286356
      22A    -11.283751    23A    -11.273946    24A    -11.265715
      25A    -11.265382    26A    -11.264431    27A    -11.262446
      28A    -11.258816    29A    -11.256792    30A    -11.256312
      31A    -11.253347    32A    -11.247568    33A    -11.240298
      34A    -11.237316    35A    -11.232421    36A    -11.232055
      37A    -11.218891    38A     -1.391066    39A     -1.347013
      40A     -1.269696    41A     -1.251923    42A     -1.251622
      43A     -1.239611    44A     -1.212290    45A     -1.205529
      46A     -1.170002    47A     -1.138479    48A     -1.110349
      49A     -1.073505    50A     -1.064826    51A     -1.044018
      52A     -1.037453    53A     -1.032531    54A     -1.004962
      55A     -1.003668    56A     -0.982746    57A     -0.945964
      58A     -0.930852    59A     -0.922536    60A     -0.901651
      61A     -0.871059    62A     -0.866038    63A     -0.854597
      64A     -0.850865    65A     -0.840737    66A     -0.837697
      67A     -0.823264    68A     -0.810529    69A     -0.778716
      70A     -0.753078    71A     -0.739302    72A     -0.733104
      73A     -0.718006    74A     -0.713423    75A     -0.708963
      76A     -0.686198    77A     -0.680363    78A     -0.666714
      79A     -0.665731    80A     -0.656458    81A     -0.655147
      82A     -0.649445    83A     -0.638422    84A     -0.637248
      85A     -0.625950    86A     -0.618264    87A     -0.610015
      88A     -0.608822    89A     -0.605767    90A     -0.603399
      91A     -0.598556    92A     -0.593997    93A     -0.593500
      94A     -0.587544    95A     -0.586203    96A     -0.581822
      97A     -0.579188    98A     -0.577911    99A     -0.568292
     100A     -0.548523   101A     -0.545393   102A     -0.544728
     103A     -0.539267   104A     -0.534796   105A     -0.530189
     106A     -0.523270   107A     -0.511747   108A     -0.509529
     109A     -0.505987   110A     -0.504816   111A     -0.504462
     112A     -0.498813   113A     -0.489956   114A     -0.469650
     115A     -0.457469   116A     -0.449691   117A     -0.435453
     118A     -0.433065   119A     -0.426968   120A     -0.418370
     121A     -0.415200   122A     -0.399110   123A     -0.396612
     124A     -0.385223   125A     -0.379334   126A     -0.354090
     127A     -0.349562   128A     -0.340672   129A     -0.317139
     130A     -0.314775   131A     -0.287002

  @DF-RHF Final Energy: -1572.29864636334446

   => Energetics <=

    Nuclear Repulsion Energy =           3567.6897416787119255
    One-Electron Energy =               -9233.2678979374286428
    Two-Electron Energy =                4093.2795098953720299
    Total Energy =                      -1572.2986463633442327

  Dipole Moment: [D]
     X:    -1.4728      Y:    -5.1480      Z:    -3.5770     Total:     6.4394

  Basis Set: (6-311++G** AUX)
    Blend: AUG-CC-PVTZ-RI
	 Reference Energy          =   -1572.2986463633444600 [Eh]
	 Singles Energy            =      -0.0000000000000000 [Eh]
	 Same-Spin Energy          =      -1.4692003041903228 [Eh]
	 Opposite-Spin Energy      =      -4.0465132550373255 [Eh]
	 Correlation Energy        =      -5.5157135592276481 [Eh]
	 Total Energy              =   -1577.8143599225720664 [Eh]

	 ================> DF-SCS-MP2 Energies <==================
	-----------------------------------------------------------
	 SCS Same-Spin Scale       =       0.3333333333333333 [-]
	 SCS Opposite-Spin Scale   =       1.2000000000000000 [-]
	 SCS Same-Spin Energy      =      -0.4897334347301076 [Eh]
	 SCS Opposite-Spin Energy  =      -4.8558159060447901 [Eh]
	 SCS Correlation Energy    =      -5.3455493407748973 [Eh]
	 SCS Total Energy          =   -1577.6441957041192836 [Eh]
	-----------------------------------------------------------

*** Psi4 exiting successfully. Buy a developer a beer!
