 Gaussian 09, Revision A.02,
 Gaussian 09:  EM64L-G09RevA.02 11-Jun-2009

 --------------------------------------------------
 #P opt=(,maxcycle=400) wB97XD/6-31G* MaxDisk=100GB
 --------------------------------------------------

 --------------------------------------------------------------
 MOLECULE0 Rotatable Bond Optimization on node37.bme.utexas.edu
 --------------------------------------------------------------
 Symbolic Z-matrix:
 Charge =  0 Multiplicity = 1

 SCF Done:  E(RwB97XD) =  -1581.54851328     A.U. after   16 cycles
 SCF Done:  E(RwB97XD) =  -1581.61398539     A.U. after   13 cycles
 SCF Done:  E(RwB97XD) =  -1581.70963566     A.U. after   14 cycles
 SCF Done:  E(RwB97XD) =  -1581.74400621     A.U. after   15 cycles
 SCF Done:  E(RwB97XD) =  -1581.75757173     A.U. after   17 cycles
 SCF Done:  E(RwB97XD) =  -1581.75601404     A.U. after   17 cycles
 SCF Done:  E(RwB97XD) =  -1581.75961713     A.U. after   14 cycles
 SCF Done:  E(RwB97XD) =  -1581.76073959     A.U. after   15 cycles
 SCF Done:  E(RwB97XD) =  -1581.76032172     A.U. after   16 cycles
 SCF Done:  E(RwB97XD) =  -1581.76112557     A.U. after   14 cycles
 SCF Done:  E(RwB97XD) =  -1581.76157959     A.U. after   12 cycles
 SCF Done:  E(RwB97XD) =  -1581.76158739     A.U. after   11 cycles
 SCF Done:  E(RwB97XD) =  -1581.76159284     A.U. after   10 cycles
 SCF Done:  E(RwB97XD) =  -1581.76159711     A.U. after   12 cycles
 SCF Done:  E(RwB97XD) =  -1581.76159911     A.U. after   11 cycles
 SCF Done:  E(RwB97XD) =  -1581.76160142     A.U. after   10 cycles
 SCF Done:  E(RwB97XD) =  -1581.76160244     A.U. after    8 cycles
 SCF Done:  E(RwB97XD) =  -1581.76160299     A.U. after    8 cycles
 SCF Done:  E(RwB97XD) =  -1581.76160305     A.U. after    7 cycles
 SCF Done:  E(RwB97XD) =  -1581.76160303     A.U. after    6 cycles
 Optimization completed.
    -- Stationary point found.

                         Standard orientation:
 ---------------------------------------------------------------------
 Center     Atomic      Atomic             Coordinates (Angstroms)
 Number     Number       Type             X           Y           Z
 ---------------------------------------------------------------------
      1          6           0       -1.089336    4.779393   -0.822536
      2          6           0       -2.390236    4.350446   -0.588865
      3          6           0       -2.600588    3.058957   -0.108557
      4          6           0       -1.469781    2.264204    0.121896
      5          7           0       -0.218485    2.657901   -0.107602
      6          6           0       -0.042946    3.897020   -0.576618
      7          6           0       -3.952162    2.489511    0.119066
      8          6           0       -5.088949    3.256433    0.358892
      9          6           0       -6.280534    2.550804    0.520065
     10          7           0       -6.367401    1.228344    0.472323
     11          6           0       -5.203451    0.581390    0.259020
     12          7           0       -4.016434    1.156799    0.071190
     13          7           0       -5.301848   -0.782463    0.238801
     14          6           0       -4.293971   -1.762337    0.160268
     15          6           0       -4.608542   -3.071419    0.577153
     16          6           0       -3.599705   -4.028108    0.517872
     17          6           0       -2.305392   -3.749141    0.086124
     18          6           0       -2.018990   -2.450098   -0.325752
     19          6           0       -3.017628   -1.475647   -0.312232
     20          7           0       -0.752912   -2.009324   -0.752549
     21          6           0        0.458101   -2.644596   -0.659731
     22          6           0        1.641535   -1.770745   -0.970177
     23          6           0        2.813161   -2.399904   -1.393940
     24          6           0        3.949019   -1.652241   -1.673826
     25          6           0        3.954692   -0.263725   -1.517117
     26          6           0        2.777665    0.358242   -1.099442
     27          6           0        1.635547   -0.380784   -0.818884
     28          6           0        5.224549    0.541643   -1.750213
     29          7           0        6.088626    0.800658   -0.610563
     30          6           0        6.771174   -0.344041   -0.017779
     31          6           0        6.015397   -0.972945    1.164733
     32          7           0        5.644909    0.002508    2.186910
     33          6           0        6.757360    0.445672    3.007515
     34          6           0        4.886215    1.091218    1.577728
     35          6           0        5.618204    1.747509    0.394651
     36          8           0        0.588656   -3.820995   -0.361764
     37          6           0       -5.984293   -3.424926    1.082426
     38          1           0       -0.889220    5.774030   -1.206171
     39          1           0       -3.229454    5.004903   -0.806371
     40          1           0       -1.599225    1.260662    0.518581
     41          1           0        0.985821    4.194554   -0.765826
     42          1           0       -5.062605    4.336378    0.435390
     43          1           0       -7.213675    3.080387    0.701315
     44          1           0       -6.238801   -1.102815    0.432907
     45          1           0       -3.829505   -5.041343    0.837813
     46          1           0       -1.537498   -4.509234    0.075522
     47          1           0       -2.793188   -0.471449   -0.639895
     48          1           0       -0.732330   -1.060189   -1.093521
     49          1           0        2.814358   -3.480231   -1.496043
     50          1           0        4.852707   -2.155008   -2.011147
     51          1           0        2.748512    1.437054   -0.965533
     52          1           0        0.767186    0.156851   -0.446891
     53          1           0        5.831538    0.026155   -2.505356
     54          1           0        4.953230    1.515033   -2.177658
     55          1           0        6.948109   -1.093784   -0.797487
     56          1           0        7.760439   -0.006570    0.326056
     57          1           0        6.627677   -1.755955    1.628206
     58          1           0        5.093405   -1.444260    0.804794
     59          1           0        7.559360    0.986023    2.473689
     60          1           0        7.211790   -0.425198    3.492526
     61          1           0        6.379230    1.108190    3.793851
     62          1           0        4.667608    1.843126    2.345746
     63          1           0        3.929480    0.677786    1.239351
     64          1           0        6.493160    2.295472    0.775477
     65          1           0        4.970630    2.486989   -0.090593
     66          1           0       -6.757923   -3.284007    0.315088
     67          1           0       -6.267733   -2.822821    1.955459
     68          1           0       -6.024209   -4.474438    1.384811
 ---------------------------------------------------------------------

 The electronic state is 1-A.
 Alpha  occ. eigenvalues --  -19.23347 -14.49232 -14.48444 -14.46742 -14.46073
 Alpha  occ. eigenvalues --  -14.45737 -14.43364 -14.42677 -10.41737 -10.40133
 Alpha  occ. eigenvalues --  -10.37591 -10.36325 -10.35303 -10.35033 -10.34624
 Alpha  occ. eigenvalues --  -10.34144 -10.34069 -10.33603 -10.32859 -10.32280
 Alpha  occ. eigenvalues --  -10.31843 -10.31045 -10.30940 -10.30931 -10.30691
 Alpha  occ. eigenvalues --  -10.30687 -10.30364 -10.30252 -10.30216 -10.30195
 Alpha  occ. eigenvalues --  -10.30165 -10.30084 -10.30072 -10.30021 -10.29519
 Alpha  occ. eigenvalues --  -10.28880 -10.28320  -1.13503  -1.12286  -1.06320
 Alpha  occ. eigenvalues --   -1.04544  -1.03580  -1.03514  -1.00705  -0.99224
 Alpha  occ. eigenvalues --   -0.95992  -0.94674  -0.93096  -0.89760  -0.88036
 Alpha  occ. eigenvalues --   -0.87359  -0.86229  -0.85080  -0.84436  -0.83752
 Alpha  occ. eigenvalues --   -0.81647  -0.79465  -0.78254  -0.77639  -0.76300
 Alpha  occ. eigenvalues --   -0.73856  -0.72935  -0.72906  -0.72581  -0.70780
 Alpha  occ. eigenvalues --   -0.70252  -0.69509  -0.67955  -0.66401  -0.65191
 Alpha  occ. eigenvalues --   -0.63623  -0.63242  -0.62255  -0.61811  -0.60185
 Alpha  occ. eigenvalues --   -0.58807  -0.57940  -0.57436  -0.56428  -0.56061
 Alpha  occ. eigenvalues --   -0.55800  -0.55149  -0.54951  -0.54597  -0.54198
 Alpha  occ. eigenvalues --   -0.53539  -0.53193  -0.52936  -0.52291  -0.52176
 Alpha  occ. eigenvalues --   -0.51839  -0.51486  -0.51321  -0.50907  -0.50607
 Alpha  occ. eigenvalues --   -0.50465  -0.50185  -0.49930  -0.49398  -0.48290
 Alpha  occ. eigenvalues --   -0.47273  -0.46725  -0.46416  -0.46281  -0.45968
 Alpha  occ. eigenvalues --   -0.45579  -0.44863  -0.44489  -0.43913  -0.43646
 Alpha  occ. eigenvalues --   -0.43442  -0.43026  -0.42017  -0.41684  -0.41179
 Alpha  occ. eigenvalues --   -0.40605  -0.40522  -0.39947  -0.38195  -0.37594
 Alpha  occ. eigenvalues --   -0.35792  -0.35276  -0.33999  -0.33428  -0.33320
 Alpha  occ. eigenvalues --   -0.32820  -0.31838  -0.30524  -0.29157  -0.27098
 Alpha  occ. eigenvalues --   -0.24640
 Alpha virt. eigenvalues --   -0.00305   0.02888   0.03321   0.04535   0.06561
 Alpha virt. eigenvalues --    0.07286   0.08342   0.10406   0.14469   0.14887
 Alpha virt. eigenvalues --    0.15982   0.16302   0.17338   0.17749   0.18677

 Mulliken atomic charges:
              1
     1  C   -0.198027
     2  C   -0.155335
     3  C    0.035030
     4  C    0.007236
     5  N   -0.435445
     6  C    0.031345
     7  C    0.295446
     8  C   -0.254800
     9  C    0.048731
    10  N   -0.492815
    11  C    0.710806
    12  N   -0.566967
    13  N   -0.798166
    14  C    0.288898
    15  C    0.120352
    16  C   -0.240230
    17  C   -0.189124
    18  C    0.353492
    19  C   -0.265569
    20  N   -0.766849
    21  C    0.601443
    22  C    0.016071
    23  C   -0.176182
    24  C   -0.224305
    25  C    0.158961
    26  C   -0.229023
    27  C   -0.205781
    28  C   -0.262048
    29  N   -0.381548
    30  C   -0.185858
    31  C   -0.183604
    32  N   -0.383679
    33  C   -0.349110
    34  C   -0.183027
    35  C   -0.184252
    36  O   -0.516508
    37  C   -0.608028
    38  H    0.186549
    39  H    0.186373
    40  H    0.201825
    41  H    0.181065
    42  H    0.180632
    43  H    0.189348
    44  H    0.369102
    45  H    0.160980
    46  H    0.215719
    47  H    0.194801
    48  H    0.359335
    49  H    0.198658
    50  H    0.163728
    51  H    0.167142
    52  H    0.185794
    53  H    0.168516
    54  H    0.167171
    55  H    0.152444
    56  H    0.158983
    57  H    0.153216
    58  H    0.175272
    59  H    0.133451
    60  H    0.167280
    61  H    0.166123
    62  H    0.151624
    63  H    0.174154
    64  H    0.158475
    65  H    0.148591
    66  H    0.177773
    67  H    0.183629
    68  H    0.190714
 Sum of Mulliken atomic charges =   0.00000

 Dipole moment (field-independent basis, Debye):
    X=             -2.3960    Y=              6.1203    Z=             -0.9837  Tot=              6.6458
 Quadrupole moment (field-independent basis, Debye-Ang):
   XX=           -191.2055   YY=           -195.7682   ZZ=           -218.7614
   XY=             -6.4959   XZ=             -5.3433   YZ=             -3.1357

 Normal termination of Gaussian 09 at Wed Apr  8 23:49:49 2020.
