 Gaussian 09, Revision A.02,
 Gaussian 09:  EM64L-G09RevA.02 11-Jun-2009

 --------------------------------------------------
 #P opt=(,maxcycle=400) wB97XD/6-31G* MaxDisk=100GB
 --------------------------------------------------

 --------------------------------------------------------------
 MOLECULE0 Rotatable Bond Optimization on node37.bme.utexas.edu
 --------------------------------------------------------------
 Symbolic Z-matrix:
 Charge =  0 Multiplicity = 1

 SCF Done:  E(RwB97XD) =  -1581.52310025     A.U. after   16 cycles
 SCF Done:  E(RwB97XD) =  -1581.58270868     A.U. after   13 cycles
 SCF Done:  E(RwB97XD) =  -1581.67698628     A.U. after   14 cycles
 SCF Done:  E(RwB97XD) =  -1581.70666463     A.U. after   14 cycles
 SCF Done:  E(RwB97XD) =  -1581.73402394     A.U. after   17 cycles
 SCF Done:  E(RwB97XD) =  -1581.72384309     A.U. after   14 cycles
 SCF Done:  E(RwB97XD) =  -1581.74646839     A.U. after   13 cycles
 SCF Done:  E(RwB97XD) =  -1581.75622649     A.U. after   14 cycles
 SCF Done:  E(RwB97XD) =  -1581.75861238     A.U. after   16 cycles
 SCF Done:  E(RwB97XD) =  -1581.75926965     A.U. after   14 cycles
 SCF Done:  E(RwB97XD) =  -1581.76052198     A.U. after    8 cycles
 SCF Done:  E(RwB97XD) =  -1581.76052196     A.U. after    7 cycles
 SCF Done:  E(RwB97XD) =  -1581.76052207     A.U. after    7 cycles
 SCF Done:  E(RwB97XD) =  -1581.76052196     A.U. after    7 cycles
 SCF Done:  E(RwB97XD) =  -1581.76052203     A.U. after    6 cycles
 SCF Done:  E(RwB97XD) =  -1581.76052208     A.U. after    7 cycles
 SCF Done:  E(RwB97XD) =  -1581.76052209     A.U. after    6 cycles
 SCF Done:  E(RwB97XD) =  -1581.76052204     A.U. after    6 cycles
 SCF Done:  E(RwB97XD) =  -1581.76052201     A.U. after    7 cycles
 SCF Done:  E(RwB97XD) =  -1581.76052194     A.U. after    7 cycles
 Optimization completed.
    -- Stationary point found.

                         Standard orientation:
 ---------------------------------------------------------------------
 Center     Atomic      Atomic             Coordinates (Angstroms)
 Number     Number       Type             X           Y           Z
 ---------------------------------------------------------------------
      1          6           0        0.398221    2.582245   -2.028238
      2          6           0        1.587360    2.147438   -1.462006
      3          6           0        2.321862    3.031583   -0.666506
      4          6           0        1.798287    4.311957   -0.472307
      5          7           0        0.655126    4.741828   -1.006300
      6          6           0       -0.021912    3.885823   -1.773179
      7          6           0        3.591442    2.592215   -0.037307
      8          6           0        4.606460    3.467168    0.341526
      9          6           0        5.732333    2.885835    0.920661
     10          7           0        5.870739    1.580953    1.113880
     11          6           0        4.833539    0.824269    0.703571
     12          7           0        3.711218    1.273678    0.142207
     13          7           0        4.998687   -0.519868    0.898248
     14          6           0        4.146025   -1.591779    0.578761
     15          6           0        4.709745   -2.878049    0.466328
     16          6           0        3.857824   -3.931573    0.148090
     17          6           0        2.492590   -3.768729   -0.070699
     18          6           0        1.956990   -2.489130    0.052929
     19          6           0        2.779050   -1.414479    0.392646
     20          7           0        0.602768   -2.169366   -0.160016
     21          6           0       -0.414426   -2.959945   -0.625434
     22          6           0       -1.693509   -2.212436   -0.881323
     23          6           0       -1.725718   -0.868633   -1.265302
     24          6           0       -2.939779   -0.232517   -1.490085
     25          6           0       -4.148035   -0.910488   -1.320807
     26          6           0       -4.104434   -2.263652   -0.975775
     27          6           0       -2.894632   -2.911513   -0.763541
     28          6           0       -5.478733   -0.189394   -1.480599
     29          7           0       -6.024069    0.497456   -0.322423
     30          6           0       -5.373950    1.732321    0.102053
     31          6           0       -4.307988    1.534525    1.193306
     32          7           0       -4.795550    0.769645    2.337498
     33          6           0       -5.677188    1.522026    3.212560
     34          6           0       -5.355185   -0.500236    1.881415
     35          6           0       -6.441073   -0.327641    0.806022
     36          8           0       -0.321354   -4.161970   -0.812701
     37          6           0        6.184683   -3.107544    0.675337
     38          1           0       -0.191206    1.931229   -2.666616
     39          1           0        1.965381    1.143202   -1.628216
     40          1           0        2.315162    5.024852    0.167172
     41          1           0       -0.946395    4.262673   -2.205366
     42          1           0        4.547064    4.535935    0.179345
     43          1           0        6.568362    3.504629    1.240462
     44          1           0        5.906095   -0.746127    1.277171
     45          1           0        4.281688   -4.928132    0.054143
     46          1           0        1.858724   -4.603894   -0.332900
     47          1           0        2.360780   -0.421769    0.483097
     48          1           0        0.355960   -1.219355    0.073013
     49          1           0       -0.802720   -0.316522   -1.425508
     50          1           0       -2.948670    0.811386   -1.796277
     51          1           0       -5.035406   -2.815245   -0.866786
     52          1           0       -2.859615   -3.965012   -0.505540
     53          1           0       -5.386487    0.553196   -2.282830
     54          1           0       -6.231159   -0.916318   -1.811589
     55          1           0       -4.934732    2.220846   -0.775428
     56          1           0       -6.152544    2.410329    0.481874
     57          1           0       -3.947290    2.508291    1.546499
     58          1           0       -3.448428    0.995827    0.778118
     59          1           0       -6.622934    1.864127    2.756604
     60          1           0       -5.146689    2.408109    3.577789
     61          1           0       -5.932349    0.903652    4.080096
     62          1           0       -5.765167   -1.035749    2.746073
     63          1           0       -4.530745   -1.101956    1.480736
     64          1           0       -7.326052    0.141974    1.260163
     65          1           0       -6.762884   -1.305289    0.429364
     66          1           0        6.495494   -2.891496    1.706872
     67          1           0        6.793726   -2.484837    0.008215
     68          1           0        6.442343   -4.151080    0.477626
 ---------------------------------------------------------------------

 The electronic state is 1-A.
 Alpha  occ. eigenvalues --  -19.24097 -14.49249 -14.49176 -14.46125 -14.45956
 Alpha  occ. eigenvalues --  -14.45731 -14.44039 -14.43362 -10.41692 -10.40894
 Alpha  occ. eigenvalues --  -10.37410 -10.36163 -10.35034 -10.34913 -10.34871
 Alpha  occ. eigenvalues --  -10.34512 -10.33306 -10.33204 -10.33009 -10.32470
 Alpha  occ. eigenvalues --  -10.32089 -10.31955 -10.31681 -10.31676 -10.31619
 Alpha  occ. eigenvalues --  -10.31571 -10.31369 -10.31196 -10.31062 -10.30962
 Alpha  occ. eigenvalues --  -10.30887 -10.30799 -10.30665 -10.30191 -10.29860
 Alpha  occ. eigenvalues --  -10.29349 -10.28744  -1.14238  -1.12228  -1.05926
 Alpha  occ. eigenvalues --   -1.04724  -1.04201  -1.04104  -1.00622  -0.99924
 Alpha  occ. eigenvalues --   -0.97029  -0.94973  -0.92472  -0.89986  -0.88720
 Alpha  occ. eigenvalues --   -0.87146  -0.86686  -0.85957  -0.85383  -0.83938
 Alpha  occ. eigenvalues --   -0.82345  -0.79927  -0.78235  -0.78007  -0.76317
 Alpha  occ. eigenvalues --   -0.73621  -0.73608  -0.73420  -0.72442  -0.71547
 Alpha  occ. eigenvalues --   -0.71108  -0.70014  -0.68548  -0.66893  -0.65218
 Alpha  occ. eigenvalues --   -0.64117  -0.63634  -0.62654  -0.61680  -0.60408
 Alpha  occ. eigenvalues --   -0.58646  -0.58510  -0.57438  -0.57201  -0.56092
 Alpha  occ. eigenvalues --   -0.56022  -0.55742  -0.55260  -0.55132  -0.54589
 Alpha  occ. eigenvalues --   -0.54323  -0.53818  -0.53602  -0.53015  -0.52460
 Alpha  occ. eigenvalues --   -0.52244  -0.51636  -0.51524  -0.51354  -0.50913
 Alpha  occ. eigenvalues --   -0.50696  -0.50217  -0.50080  -0.49760  -0.48914
 Alpha  occ. eigenvalues --   -0.47545  -0.47104  -0.47079  -0.46676  -0.46244
 Alpha  occ. eigenvalues --   -0.45925  -0.45513  -0.45189  -0.44739  -0.44235
 Alpha  occ. eigenvalues --   -0.43634  -0.43189  -0.42947  -0.41945  -0.41601
 Alpha  occ. eigenvalues --   -0.41299  -0.41210  -0.40034  -0.38265  -0.37318
 Alpha  occ. eigenvalues --   -0.35466  -0.35003  -0.34249  -0.34060  -0.33923
 Alpha  occ. eigenvalues --   -0.33370  -0.32741  -0.31184  -0.29482  -0.27424
 Alpha  occ. eigenvalues --   -0.25330
 Alpha virt. eigenvalues --   -0.00072   0.02474   0.03482   0.04457   0.05435
 Alpha virt. eigenvalues --    0.07267   0.07871   0.10171   0.13694   0.14225
 Alpha virt. eigenvalues --    0.15360   0.16413   0.17158   0.17934   0.18454

 Mulliken atomic charges:
              1
     1  C   -0.198799
     2  C   -0.149977
     3  C    0.037084
     4  C   -0.008615
     5  N   -0.421266
     6  C    0.024313
     7  C    0.287564
     8  C   -0.250641
     9  C    0.047535
    10  N   -0.493394
    11  C    0.708170
    12  N   -0.565479
    13  N   -0.799588
    14  C    0.294276
    15  C    0.119685
    16  C   -0.239877
    17  C   -0.191130
    18  C    0.353784
    19  C   -0.264886
    20  N   -0.766836
    21  C    0.598478
    22  C    0.018016
    23  C   -0.201981
    24  C   -0.219994
    25  C    0.159483
    26  C   -0.222273
    27  C   -0.176216
    28  C   -0.263614
    29  N   -0.380551
    30  C   -0.185361
    31  C   -0.181884
    32  N   -0.384872
    33  C   -0.350991
    34  C   -0.182086
    35  C   -0.187128
    36  O   -0.513247
    37  C   -0.604628
    38  H    0.182816
    39  H    0.208722
    40  H    0.179146
    41  H    0.180407
    42  H    0.186531
    43  H    0.190006
    44  H    0.368717
    45  H    0.162156
    46  H    0.216173
    47  H    0.192237
    48  H    0.359892
    49  H    0.160707
    50  H    0.160501
    51  H    0.168478
    52  H    0.202053
    53  H    0.169937
    54  H    0.171806
    55  H    0.149827
    56  H    0.162371
    57  H    0.155850
    58  H    0.163506
    59  H    0.135780
    60  H    0.168422
    61  H    0.168280
    62  H    0.155041
    63  H    0.169060
    64  H    0.161879
    65  H    0.153843
    66  H    0.177973
    67  H    0.184951
    68  H    0.189856
 Sum of Mulliken atomic charges =   0.00000

 Dipole moment (field-independent basis, Debye):
    X=              0.4475    Y=              2.4005    Z=             -0.0182  Tot=              2.4419
 Quadrupole moment (field-independent basis, Debye-Ang):
   XX=           -188.4300   YY=           -224.2380   ZZ=           -217.2957
   XY=              3.6201   XZ=              2.3645   YZ=             -3.4003

 Normal termination of Gaussian 09 at Wed Mar 25 14:37:06 2020.
