                               Psi4 1.3.2 release

  ==> Input File <==

--------------------------------------------------------------------------
molecule {
0 1
 C    0.540096    4.737249   -1.823382
 C    1.890078    4.540094   -1.500420
 C    2.360802    3.245170   -1.207613
 C    1.403045    2.206303   -1.305144
 N    0.108897    2.373800   -1.605979
 C   -0.308593    3.624734   -1.854866
 C    3.778740    2.934360   -0.796600
 C    4.840496    3.852734   -0.770362
 C    6.070515    3.347125   -0.330948
 N    6.274178    2.088178    0.053053
 C    5.198523    1.277069    0.003470
 N    3.989182    1.664327   -0.405496
 N    5.412153   -0.029022    0.417588
 C    4.575157   -1.203771    0.451672
 C    5.162926   -2.496738    0.598811
 C    4.294638   -3.602252    0.602291
 C    2.904697   -3.508186    0.463683
 C    2.338142   -2.236383    0.336922
 C    3.181958   -1.115679    0.346520
 N    0.946951   -1.946363    0.163694
 C   -0.139730   -2.757564   -0.067498
 C   -1.457827   -2.116353   -0.477520
 C   -1.641702   -0.751493   -0.763574
 C   -2.906533   -0.252044   -1.079195
 C   -4.035478   -1.088733   -1.137324
 C   -3.833341   -2.462857   -0.905851
 C   -2.569054   -2.970841   -0.595615
 C   -5.430732   -0.511441   -1.381379
 N   -6.191247    0.042109   -0.246891
 C   -5.807157    1.359106    0.313141
 C   -4.857297    1.302603    1.537589
 N   -5.336778    0.422342    2.628208
 C   -6.331471    0.992190    3.544919
 C   -5.642077   -0.913086    2.059330
 C   -6.601275   -0.874089    0.841636
 O   -0.069614   -3.971005    0.066819
 C    6.657839   -2.726455    0.739705
 H    0.152416    5.727578   -2.041688
 H    2.546748    5.405077   -1.458044
 H    1.694924    1.173392   -1.146071
 H   -1.365825    3.723856   -2.098431
 H    4.760413    4.892701   -1.064511
 H    6.959579    3.974037   -0.273381
 H    6.384716   -0.150262    0.656263
 H    4.711847   -4.603481    0.706036
 H    2.272911   -4.386877    0.446147
 H    2.744163   -0.135318    0.273772
 H    0.744498   -0.958425    0.139859
 H   -0.797942   -0.067655   -0.759024
 H   -3.010195    0.816358   -1.267070
 H   -4.680289   -3.148451   -0.939717
 H   -2.432351   -4.033460   -0.409065
 H   -5.348267    0.289235   -2.129942
 H   -6.057548   -1.299923   -1.822345
 H   -5.352863    2.062693   -0.546255
 H   -7.052735    2.006388    0.759124
 H   -4.676831    2.519257    2.019022
 H   -3.685697    0.854987    1.174998
 H   -7.271496    1.201767    3.021426
 H   -5.953179    1.924430    3.980638
 H   -6.533117    0.294708    4.366847
 H   -6.044991   -1.595472    2.882858
 H   -4.346527   -1.489213    1.616064
 H   -7.894036   -0.436737    1.302715
 H   -6.762792   -2.043327    0.381932
 H    7.090923   -2.195240    1.599068
 H    7.194529   -2.392194   -0.152125
 H    6.908103   -3.781721    0.875940
}
memory 20GB
set_num_threads(6)
psi4_io.set_default_path("/scratch/bdw2292")
set freeze_core True
E, wfn = energy('mp2/6-311+G*',return_wfn=True)
oeprop(wfn,"WIBERG_LOWDIN_INDICES")
clean()
--------------------------------------------------------------------------

    Molecular point group: c1

    Geometry (in Angstrom), charge = 0, multiplicity = 1:

       Center              X                  Y                   Z               Mass
    ------------   -----------------  -----------------  -----------------  -----------------
         C            0.377912905664     4.681975946619    -1.773536258694    12.000000000000
         C            1.727894905664     4.484820946619    -1.450574258694    12.000000000000
         C            2.198618905664     3.189896946619    -1.157767258694    12.000000000000
         C            1.240861905664     2.151029946619    -1.255298258694    12.000000000000
         N           -0.053286094336     2.318526946619    -1.556133258694    14.003074004430
         C           -0.470776094336     3.569460946619    -1.805020258694    12.000000000000
         C            3.616556905664     2.879086946619    -0.746754258694    12.000000000000
         C            4.678312905664     3.797460946619    -0.720516258694    12.000000000000
         C            5.908331905664     3.291851946619    -0.281102258694    12.000000000000
         N            6.111994905664     2.032904946619     0.102898741306    14.003074004430
         C            5.036339905664     1.221795946619     0.053315741306    12.000000000000
         N            3.826998905664     1.609053946619    -0.355650258694    14.003074004430
         N            5.249969905664    -0.084295053381     0.467433741306    14.003074004430
         C            4.412973905664    -1.259044053381     0.501517741306    12.000000000000
         C            5.000742905664    -2.552011053381     0.648656741306    12.000000000000
         C            4.132454905664    -3.657525053381     0.652136741306    12.000000000000
         C            2.742513905664    -3.563459053381     0.513528741306    12.000000000000
         C            2.175958905664    -2.291656053381     0.386767741306    12.000000000000
         C            3.019774905664    -1.170952053381     0.396365741306    12.000000000000
         N            0.784767905664    -2.001636053381     0.213539741306    14.003074004430
         C           -0.301913094336    -2.812837053381    -0.017652258694    12.000000000000
         C           -1.620010094336    -2.171626053381    -0.427674258694    12.000000000000
         C           -1.803885094336    -0.806766053381    -0.713728258694    12.000000000000
         C           -3.068716094336    -0.307317053381    -1.029349258694    12.000000000000
         C           -4.197661094336    -1.144006053381    -1.087478258694    12.000000000000
         C           -3.995524094336    -2.518130053381    -0.856005258694    12.000000000000
         C           -2.731237094336    -3.026114053381    -0.545769258694    12.000000000000
         C           -5.592915094336    -0.566714053381    -1.331533258694    12.000000000000
         N           -6.353430094336    -0.013164053381    -0.197045258694    14.003074004430
         C           -5.969340094336     1.303832946619     0.362986741306    12.000000000000
         C           -5.019480094336     1.247329946619     1.587434741306    12.000000000000
         N           -5.498961094336     0.367068946619     2.678053741306    14.003074004430
         C           -6.493654094336     0.936916946619     3.594764741306    12.000000000000
         C           -5.804260094336    -0.968359053381     2.109175741306    12.000000000000
         C           -6.763458094336    -0.929362053381     0.891481741306    12.000000000000
         O           -0.231797094336    -4.026278053381     0.116664741306    15.994914619570
         C            6.495655905664    -2.781728053381     0.789550741306    12.000000000000
         H           -0.009767094336     5.672304946619    -1.991842258694     1.007825032230
         H            2.384564905664     5.349803946619    -1.408198258694     1.007825032230
         H            1.532740905664     1.118118946619    -1.096225258694     1.007825032230
         H           -1.528008094336     3.668582946619    -2.048585258694     1.007825032230
         H            4.598229905664     4.837427946619    -1.014665258694     1.007825032230
         H            6.797395905664     3.918763946619    -0.223535258694     1.007825032230
         H            6.222532905664    -0.205535053381     0.706108741306     1.007825032230
         H            4.549663905664    -4.658754053381     0.755881741306     1.007825032230
         H            2.110727905664    -4.442150053381     0.495992741306     1.007825032230
         H            2.581979905664    -0.190591053381     0.323617741306     1.007825032230
         H            0.582314905664    -1.013698053381     0.189704741306     1.007825032230
         H           -0.960125094336    -0.122928053381    -0.709178258694     1.007825032230
         H           -3.172378094336     0.761084946619    -1.217224258694     1.007825032230
         H           -4.842472094336    -3.203724053381    -0.889871258694     1.007825032230
         H           -2.594534094336    -4.088733053381    -0.359219258694     1.007825032230
         H           -5.510450094336     0.233961946619    -2.080096258694     1.007825032230
         H           -6.219731094336    -1.355196053381    -1.772499258694     1.007825032230
         H           -5.515046094336     2.007419946619    -0.496409258694     1.007825032230
         H           -7.214918094336     1.951114946619     0.808969741306     1.007825032230
         H           -4.839014094336     2.463983946619     2.068867741306     1.007825032230
         H           -3.847880094336     0.799713946619     1.224843741306     1.007825032230
         H           -7.433679094336     1.146493946619     3.071271741306     1.007825032230
         H           -6.115362094336     1.869156946619     4.030483741306     1.007825032230
         H           -6.695300094336     0.239434946619     4.416692741306     1.007825032230
         H           -6.207174094336    -1.650745053381     2.932703741306     1.007825032230
         H           -4.508710094336    -1.544486053381     1.665909741306     1.007825032230
         H           -8.056219094336    -0.492010053381     1.352560741306     1.007825032230
         H           -6.924975094336    -2.098600053381     0.431777741306     1.007825032230
         H            6.928739905664    -2.250513053381     1.648913741306     1.007825032230
         H            7.032345905664    -2.447467053381    -0.102279258694     1.007825032230
         H            6.745919905664    -3.836994053381     0.925785741306     1.007825032230

  Charge       = 0
  Multiplicity = 1
  Basis Set: 6-311+G*
    Blend: 6-311+G*
  Basis Set: (6-311+G* AUX)
    Blend: HEAVY-AUG-CC-PVTZ-JKFIT

    Orbital Energies [Eh]
    ---------------------

    Doubly Occupied:

       1A    -20.518226     2A    -15.604500     3A    -15.600757
       4A    -15.588274     5A    -15.574083     6A    -15.568679
       7A    -15.568600     8A    -15.554431     9A    -11.375313
      10A    -11.364522    11A    -11.335182    12A    -11.315654
      13A    -11.314759    14A    -11.312960    15A    -11.303338
      16A    -11.302206    17A    -11.301985    18A    -11.301238
      19A    -11.298893    20A    -11.292349    21A    -11.291468
      22A    -11.281698    23A    -11.276549    24A    -11.267700
      25A    -11.256457    26A    -11.255687    27A    -11.254094
      28A    -11.253920    29A    -11.247301    30A    -11.246887
      31A    -11.246406    32A    -11.243792    33A    -11.242909
      34A    -11.239523    35A    -11.233496    36A    -11.229905
      37A    -11.224113    38A     -1.384616    39A     -1.345260
      40A     -1.280398    41A     -1.250419    42A     -1.244283
      43A     -1.241303    44A     -1.209923    45A     -1.199315
      46A     -1.159917    47A     -1.139497    48A     -1.117353
      49A     -1.076371    50A     -1.058044    51A     -1.049606
      52A     -1.037499    53A     -1.021611    54A     -1.007740
      55A     -0.991970    56A     -0.976157    57A     -0.946660
      58A     -0.927902    59A     -0.927407    60A     -0.901637
      61A     -0.874163    62A     -0.864979    63A     -0.859112
      64A     -0.841868    65A     -0.834116    66A     -0.827953
      67A     -0.824528    68A     -0.804166    69A     -0.778068
      70A     -0.755572    71A     -0.741607    72A     -0.730809
      73A     -0.723435    74A     -0.702249    75A     -0.696032
      76A     -0.683900    77A     -0.671774    78A     -0.667394
      79A     -0.659229    80A     -0.653364    81A     -0.652192
      82A     -0.640408    83A     -0.634869    84A     -0.630746
      85A     -0.622902    86A     -0.617670    87A     -0.611762
      88A     -0.608235    89A     -0.606092    90A     -0.603686
      91A     -0.602193    92A     -0.597714    93A     -0.593172
      94A     -0.590873    95A     -0.587392    96A     -0.580925
      97A     -0.578645    98A     -0.575272    99A     -0.565049
     100A     -0.563004   101A     -0.547925   102A     -0.546482
     103A     -0.529340   104A     -0.526253   105A     -0.522441
     106A     -0.521352   107A     -0.514120   108A     -0.509849
     109A     -0.508850   110A     -0.503902   111A     -0.502818
     112A     -0.491787   113A     -0.485026   114A     -0.480614
     115A     -0.460520   116A     -0.452356   117A     -0.444380
     118A     -0.433600   119A     -0.427123   120A     -0.424855
     121A     -0.414510   122A     -0.408712   123A     -0.401322
     124A     -0.380782   125A     -0.374102   126A     -0.347099
     127A     -0.344734   128A     -0.339185   129A     -0.314610
     130A     -0.311323   131A     -0.289033

  @DF-RHF Final Energy: -1572.31097226328689

   => Energetics <=

    Nuclear Repulsion Energy =           3725.2490260789909371
    One-Electron Energy =               -9548.7222714732670283
    Two-Electron Energy =                4251.1622731309889787
    Total Energy =                      -1572.3109722632871126

  Dipole Moment: [D]
     X:     1.2696      Y:     6.8271      Z:    -1.2460     Total:     7.0550

  Basis Set: (6-311+G* AUX)
    Blend: HEAVY-AUG-CC-PVTZ-RI
	 Reference Energy          =   -1572.3109722632868852 [Eh]
	 Singles Energy            =      -0.0000000000000000 [Eh]
	 Same-Spin Energy          =      -1.4491189780784810 [Eh]
	 Opposite-Spin Energy      =      -3.8925356117230585 [Eh]
	 Correlation Energy        =      -5.3416545898015393 [Eh]
	 Total Energy              =   -1577.6526268530883499 [Eh]

	 ================> DF-SCS-MP2 Energies <==================
	-----------------------------------------------------------
	 SCS Same-Spin Scale       =       0.3333333333333333 [-]
	 SCS Opposite-Spin Scale   =       1.2000000000000000 [-]
	 SCS Same-Spin Energy      =      -0.4830396593594937 [Eh]
	 SCS Opposite-Spin Energy  =      -4.6710427340676697 [Eh]
	 SCS Correlation Energy    =      -5.1540823934271636 [Eh]
	 SCS Total Energy          =   -1577.4650546567140736 [Eh]
	-----------------------------------------------------------

*** Psi4 exiting successfully. Buy a developer a beer!
