                               Psi4 1.3.2 release

  ==> Input File <==

--------------------------------------------------------------------------
molecule {
0 1
 C   -1.840126    5.055218   -0.123240
 C   -3.151045    4.561506   -0.167288
 C   -3.386510    3.181442   -0.013335
 C   -2.240547    2.381670    0.219429
 N   -0.981270    2.834486    0.269630
 C   -0.793316    4.151534    0.092631
 C   -4.754053    2.549038   -0.079851
 C   -5.972760    3.245204   -0.132308
 C   -7.126616    2.452421   -0.169001
 N   -7.124126    1.120738   -0.172086
 C   -5.909740    0.535632   -0.139545
 N   -4.756490    1.203815   -0.092280
 N   -5.910984   -0.848428   -0.160416
 C   -4.868671   -1.837599   -0.030583
 C   -5.209545   -3.181406    0.312010
 C   -4.154071   -4.098118    0.453372
 C   -2.804246   -3.769775    0.282167
 C   -2.482067   -2.457465   -0.079766
 C   -3.518632   -1.523626   -0.236191
 N   -1.158839   -1.949654   -0.294198
 C    0.080054   -2.501623   -0.060280
 C    1.295927   -1.602088   -0.198082
 C    1.277171   -0.210465    0.001862
 C    2.442107    0.544932   -0.154949
 C    3.675860   -0.055718   -0.472234
 C    3.681468   -1.451379   -0.660823
 C    2.521988   -2.215302   -0.507517
 C    4.932954    0.802341   -0.649480
 N    6.260250    0.184184   -0.472940
 C    7.402468    0.982339   -0.978024
 C    8.783657    0.298169   -0.822540
 N    9.097806   -0.125350    0.561709
 C    9.634534    0.906653    1.457312
 C    7.957843   -0.917957    1.077717
 C    6.580849   -0.226976    0.916767
 O    0.219775   -3.678939    0.236148
 C   -6.636816   -3.646713    0.546730
 H   -1.632921    6.112947   -0.255931
 H   -3.964834    5.259444   -0.348551
 H   -2.342849    1.316107    0.399331
 H    0.242063    4.485844    0.135352
 H   -6.064069    4.324448   -0.124782
 H   -8.123681    2.891038   -0.197532
 H   -6.863438   -1.180686   -0.154109
 H   -4.380736   -5.129021    0.722389
 H   -2.019399   -4.502640    0.420832
 H   -3.274755   -0.517355   -0.532951
 H   -1.133265   -0.996669   -0.627637
 H    0.351006    0.287899    0.279005
 H    2.382359    1.624324   -0.014950
 H    4.606578   -1.956679   -0.933072
 H    2.549771   -3.294562   -0.638122
 H    4.865376    1.200461   -1.672445
 H    4.891584    1.648117    0.052758
 H    7.193600    1.246743   -2.416129
 H    7.424184    2.284824   -0.271088
 H    9.632555    0.963700   -1.226889
 H    8.754573   -0.956221   -1.659834
 H    8.891355    1.691118    1.640767
 H   10.528354    1.362685    1.015932
 H    9.923541    0.461448    2.416395
 H    8.160048   -1.214008    2.211311
 H    7.916647   -2.194658    0.273660
 H    6.542517    0.981096    1.798886
 H    5.588439   -1.120476    1.372171
 H   -7.272053   -3.530427   -0.343070
 H   -7.107063   -3.081412    1.356184
 H   -6.694819   -4.701016    0.829610
}
memory 20GB
set_num_threads(6)
psi4_io.set_default_path("/scratch/bdw2292")
set freeze_core True
E, wfn = energy('mp2/6-311++G**',return_wfn=True)
oeprop(wfn,"WIBERG_LOWDIN_INDICES")
clean()
--------------------------------------------------------------------------

    Molecular point group: c1

    Geometry (in Angstrom), charge = 0, multiplicity = 1:

       Center              X                  Y                   Z               Mass
    ------------   -----------------  -----------------  -----------------  -----------------
         C           -1.707226387738     5.050638761677    -0.120163283562    12.000000000000
         C           -3.018145387738     4.556926761677    -0.164211283562    12.000000000000
         C           -3.253610387738     3.176862761677    -0.010258283562    12.000000000000
         C           -2.107647387738     2.377090761677     0.222505716438    12.000000000000
         N           -0.848370387738     2.829906761677     0.272706716438    14.003074004430
         C           -0.660416387738     4.146954761677     0.095707716438    12.000000000000
         C           -4.621153387738     2.544458761677    -0.076774283562    12.000000000000
         C           -5.839860387738     3.240624761677    -0.129231283562    12.000000000000
         C           -6.993716387738     2.447841761677    -0.165924283562    12.000000000000
         N           -6.991226387738     1.116158761677    -0.169009283562    14.003074004430
         C           -5.776840387738     0.531052761677    -0.136468283562    12.000000000000
         N           -4.623590387738     1.199235761677    -0.089203283562    14.003074004430
         N           -5.778084387738    -0.853007238323    -0.157339283562    14.003074004430
         C           -4.735771387738    -1.842178238323    -0.027506283562    12.000000000000
         C           -5.076645387738    -3.185985238323     0.315086716438    12.000000000000
         C           -4.021171387738    -4.102697238323     0.456448716438    12.000000000000
         C           -2.671346387738    -3.774354238323     0.285243716438    12.000000000000
         C           -2.349167387738    -2.462044238323    -0.076689283562    12.000000000000
         C           -3.385732387738    -1.528205238323    -0.233114283562    12.000000000000
         N           -1.025939387738    -1.954233238323    -0.291121283562    14.003074004430
         C            0.212953612262    -2.506202238323    -0.057203283562    12.000000000000
         C            1.428826612262    -1.606667238323    -0.195005283562    12.000000000000
         C            1.410070612262    -0.215044238323     0.004938716438    12.000000000000
         C            2.575006612262     0.540352761677    -0.151872283562    12.000000000000
         C            3.808759612262    -0.060297238323    -0.469157283562    12.000000000000
         C            3.814367612262    -1.455958238323    -0.657746283562    12.000000000000
         C            2.654887612262    -2.219881238323    -0.504440283562    12.000000000000
         C            5.065853612262     0.797761761677    -0.646403283562    12.000000000000
         N            6.393149612262     0.179604761677    -0.469863283562    14.003074004430
         C            7.535367612262     0.977759761677    -0.974947283562    12.000000000000
         C            8.916556612262     0.293589761677    -0.819463283562    12.000000000000
         N            9.230705612262    -0.129929238323     0.564785716438    14.003074004430
         C            9.767433612262     0.902073761677     1.460388716438    12.000000000000
         C            8.090742612262    -0.922536238323     1.080793716438    12.000000000000
         C            6.713748612262    -0.231555238323     0.919843716438    12.000000000000
         O            0.352674612262    -3.683518238323     0.239224716438    15.994914619570
         C           -6.503916387738    -3.651292238323     0.549806716438    12.000000000000
         H           -1.500021387738     6.108367761677    -0.252854283562     1.007825032230
         H           -3.831934387738     5.254864761677    -0.345474283562     1.007825032230
         H           -2.209949387738     1.311527761677     0.402407716438     1.007825032230
         H            0.374962612262     4.481264761677     0.138428716438     1.007825032230
         H           -5.931169387738     4.319868761677    -0.121705283562     1.007825032230
         H           -7.990781387738     2.886458761677    -0.194455283562     1.007825032230
         H           -6.730538387738    -1.185265238323    -0.151032283562     1.007825032230
         H           -4.247836387738    -5.133600238323     0.725465716438     1.007825032230
         H           -1.886499387738    -4.507219238323     0.423908716438     1.007825032230
         H           -3.141855387738    -0.521934238323    -0.529874283562     1.007825032230
         H           -1.000365387738    -1.001248238323    -0.624560283562     1.007825032230
         H            0.483905612262     0.283319761677     0.282081716438     1.007825032230
         H            2.515258612262     1.619744761677    -0.011873283562     1.007825032230
         H            4.739477612262    -1.961258238323    -0.929995283562     1.007825032230
         H            2.682670612262    -3.299141238323    -0.635045283562     1.007825032230
         H            4.998275612262     1.195881761677    -1.669368283562     1.007825032230
         H            5.024483612262     1.643537761677     0.055834716438     1.007825032230
         H            7.326499612262     1.242163761677    -2.413052283562     1.007825032230
         H            7.557083612262     2.280244761677    -0.268011283562     1.007825032230
         H            9.765454612262     0.959120761677    -1.223812283562     1.007825032230
         H            8.887472612262    -0.960800238323    -1.656757283562     1.007825032230
         H            9.024254612262     1.686538761677     1.643843716438     1.007825032230
         H           10.661253612262     1.358105761677     1.019008716438     1.007825032230
         H           10.056440612262     0.456868761677     2.419471716438     1.007825032230
         H            8.292947612262    -1.218587238323     2.214387716438     1.007825032230
         H            8.049546612262    -2.199237238323     0.276736716438     1.007825032230
         H            6.675416612262     0.976516761677     1.801962716438     1.007825032230
         H            5.721338612262    -1.125055238323     1.375247716438     1.007825032230
         H           -7.139153387738    -3.535006238323    -0.339993283562     1.007825032230
         H           -6.974163387738    -3.085991238323     1.359260716438     1.007825032230
         H           -6.561919387738    -4.705595238323     0.832686716438     1.007825032230

  Charge       = 0
  Multiplicity = 1
  Basis Set: 6-311++G**
    Blend: 6-311++G**
  Basis Set: (6-311++G** AUX)
    Blend: AUG-CC-PVTZ-JKFIT

    Orbital Energies [Eh]
    ---------------------

    Doubly Occupied:

       1A    -20.517364     2A    -15.603115     3A    -15.599383
       4A    -15.588875     5A    -15.586779     6A    -15.573149
       7A    -15.567839     8A    -15.567359     9A    -11.373845
      10A    -11.361517    11A    -11.344091    12A    -11.334261
      13A    -11.334042    14A    -11.316976    15A    -11.315427
      16A    -11.313524    17A    -11.301176    18A    -11.300527
      19A    -11.300139    20A    -11.291507    21A    -11.289436
      22A    -11.280171    23A    -11.277009    24A    -11.265818
      25A    -11.261590    26A    -11.257258    27A    -11.252275
      28A    -11.251985    29A    -11.250727    30A    -11.245990
      31A    -11.244207    32A    -11.242697    33A    -11.238282
      34A    -11.237321    35A    -11.233014    36A    -11.229988
      37A    -11.223228    38A     -1.382972    39A     -1.344642
      40A     -1.278311    41A     -1.254917    42A     -1.248681
      43A     -1.240019    44A     -1.212029    45A     -1.209127
      46A     -1.157970    47A     -1.138413    48A     -1.115760
      49A     -1.074825    50A     -1.058043    51A     -1.047968
      52A     -1.036945    53A     -1.017654    54A     -1.006607
      55A     -0.992802    56A     -0.981753    57A     -0.946901
      58A     -0.928899    59A     -0.926221    60A     -0.900259
      61A     -0.872385    62A     -0.864406    63A     -0.857640
      64A     -0.842070    65A     -0.830612    66A     -0.825063
      67A     -0.822515    68A     -0.802612    69A     -0.775504
      70A     -0.753596    71A     -0.737473    72A     -0.728759
      73A     -0.721341    74A     -0.699736    75A     -0.696940
      76A     -0.681952    77A     -0.669688    78A     -0.661689
      79A     -0.656735    80A     -0.650980    81A     -0.647298
      82A     -0.645591    83A     -0.638732    84A     -0.630137
      85A     -0.625921    86A     -0.620033    87A     -0.613869
      88A     -0.609637    89A     -0.605073    90A     -0.602575
      91A     -0.598479    92A     -0.595191    93A     -0.589732
      94A     -0.587347    95A     -0.583914    96A     -0.579311
      97A     -0.575608    98A     -0.567026    99A     -0.561283
     100A     -0.555383   101A     -0.546646   102A     -0.544315
     103A     -0.542991   104A     -0.525809   105A     -0.522324
     106A     -0.520944   107A     -0.513024   108A     -0.508400
     109A     -0.507874   110A     -0.503358   111A     -0.494557
     112A     -0.492269   113A     -0.483615   114A     -0.477062
     115A     -0.451236   116A     -0.446607   117A     -0.442561
     118A     -0.441599   119A     -0.425215   120A     -0.423828
     121A     -0.413727   122A     -0.400045   123A     -0.397565
     124A     -0.373074   125A     -0.366118   126A     -0.345843
     127A     -0.342942   128A     -0.338686   129A     -0.333213
     130A     -0.312962   131A     -0.288954

  @DF-RHF Final Energy: -1572.27537299621758

   => Energetics <=

    Nuclear Repulsion Energy =           3586.2577921600973241
    One-Electron Energy =               -9270.6967270194309094
    Two-Electron Energy =                4112.1635618631162288
    Total Energy =                      -1572.2753729962178113

  Dipole Moment: [D]
     X:    -2.0527      Y:     7.8886      Z:    -0.3072     Total:     8.1570

  Basis Set: (6-311++G** AUX)
    Blend: AUG-CC-PVTZ-RI
	 Reference Energy          =   -1572.2753729962175839 [Eh]
	 Singles Energy            =      -0.0000000000000000 [Eh]
	 Same-Spin Energy          =      -1.4703123644364533 [Eh]
	 Opposite-Spin Energy      =      -4.0528085382992911 [Eh]
	 Correlation Energy        =      -5.5231209027357444 [Eh]
	 Total Energy              =   -1577.7984938989534385 [Eh]

	 ================> DF-SCS-MP2 Energies <==================
	-----------------------------------------------------------
	 SCS Same-Spin Scale       =       0.3333333333333333 [-]
	 SCS Opposite-Spin Scale   =       1.2000000000000000 [-]
	 SCS Same-Spin Energy      =      -0.4901041214788178 [Eh]
	 SCS Opposite-Spin Energy  =      -4.8633702459591488 [Eh]
	 SCS Correlation Energy    =      -5.3534743674379666 [Eh]
	 SCS Total Energy          =   -1577.6288473636554954 [Eh]
	-----------------------------------------------------------

*** Psi4 exiting successfully. Buy a developer a beer!
