                               Psi4 1.3.2 release

  ==> Input File <==

--------------------------------------------------------------------------
molecule {
0 1
 C    0.352798    4.677073   -1.836995
 C    1.679955    4.538784   -1.407206
 C    2.194207    3.261052   -1.109062
 C    1.297443    2.180118   -1.298201
 N    0.029071    2.289198   -1.713311
 C   -0.428972    3.523819   -1.970333
 C    3.609973    3.016802   -0.645984
 C    4.612667    3.992413   -0.529314
 C    5.868774    3.525223   -0.126473
 N    6.145924    2.254760    0.153492
 C    5.116517    1.389397    0.039571
 N    3.882935    1.733202   -0.341643
 N    5.408319    0.068677    0.351033
 C    4.643325   -1.153752    0.294207
 C    5.318579   -2.410998    0.337582
 C    4.526189   -3.568551    0.247790
 C    3.131124   -3.554355    0.130298
 C    2.481623   -2.315878    0.125909
 C    3.246705   -1.141048    0.199736
 N    1.070589   -2.105022    0.020672
 C    0.036891   -2.971813   -0.244631
 C   -1.315128   -2.355141   -0.549325
 C   -1.465710   -1.149998   -1.256403
 C   -2.734084   -0.605188   -1.462855
 C   -3.895641   -1.251569   -0.999816
 C   -3.732417   -2.474704   -0.321241
 C   -2.466816   -3.025962   -0.106307
 C   -5.274140   -0.609827   -1.176163
 N   -5.743617    0.407819   -0.208982
 C   -4.779085    1.043986    0.718457
 C   -4.631394    0.295168    2.067949
 N   -5.909061    0.053382    2.779776
 C   -6.409007    1.156188    3.610081
 C   -6.884930   -0.559937    1.845491
 C   -7.028052    0.177617    0.489390
 O    0.173472   -4.184848   -0.221716
 C    6.828073   -2.545666    0.439999
 H   -0.065082    5.652828   -2.066272
 H    2.283109    5.437283   -1.302001
 H    1.635054    1.163348   -1.130050
 H   -1.463155    3.587461   -2.305272
 H    4.469874    5.041176   -0.759118
 H    6.705358    4.216510   -0.029183
 H    6.387398   -0.015685    0.580117
 H    5.008938   -4.544978    0.260197
 H    2.557555   -4.470380    0.057261
 H    2.753876   -0.182469    0.190232
 H    0.793225   -1.135455    0.083975
 H   -0.587466   -0.620184   -1.618246
 H   -2.809525    0.350224   -1.981866
 H   -4.603136   -3.006126    0.061971
 H   -2.349202   -3.965472    0.427923
 H   -5.319019   -0.133439   -2.165889
 H   -6.011613   -1.426017   -1.172289
 H   -3.917048    1.215518    0.269553
 H   -5.367801    2.467125    1.093880
 H   -3.758178    1.112263    2.932446
 H   -4.054234   -0.849302    1.879858
 H   -6.677244    2.021911    2.994035
 H   -5.645724    1.460342    4.335475
 H   -7.294262    0.835040    4.171278
 H   -7.873286   -0.671706    2.360016
 H   -6.363036   -1.970853    1.514872
 H   -7.647711    1.563860    0.812799
 H   -7.784486   -0.373457   -0.219730
 H    7.203729   -2.134100    1.387380
 H    7.335293   -2.012620   -0.376662
 H    7.169811   -3.588872    0.392519
}
memory 20GB
set_num_threads(6)
psi4_io.set_default_path("/scratch/bdw2292")
set freeze_core True
E, wfn = energy('mp2/6-311++G**',return_wfn=True)
oeprop(wfn,"WIBERG_LOWDIN_INDICES")
clean()
--------------------------------------------------------------------------

    Molecular point group: c1

    Geometry (in Angstrom), charge = 0, multiplicity = 1:

       Center              X                  Y                   Z               Mass
    ------------   -----------------  -----------------  -----------------  -----------------
         C            0.185751055758     4.642672183273    -1.771852704331    12.000000000000
         C            1.512908055758     4.504383183273    -1.342063704331    12.000000000000
         C            2.027160055758     3.226651183273    -1.043919704331    12.000000000000
         C            1.130396055758     2.145717183273    -1.233058704331    12.000000000000
         N           -0.137975944242     2.254797183273    -1.648168704331    14.003074004430
         C           -0.596018944242     3.489418183273    -1.905190704331    12.000000000000
         C            3.442926055758     2.982401183273    -0.580841704331    12.000000000000
         C            4.445620055758     3.958012183273    -0.464171704331    12.000000000000
         C            5.701727055758     3.490822183273    -0.061330704331    12.000000000000
         N            5.978877055758     2.220359183273     0.218634295669    14.003074004430
         C            4.949470055758     1.354996183273     0.104713295669    12.000000000000
         N            3.715888055758     1.698801183273    -0.276500704331    14.003074004430
         N            5.241272055758     0.034276183273     0.416175295669    14.003074004430
         C            4.476278055758    -1.188152816727     0.359349295669    12.000000000000
         C            5.151532055758    -2.445398816727     0.402724295669    12.000000000000
         C            4.359142055758    -3.602951816727     0.312932295669    12.000000000000
         C            2.964077055758    -3.588755816727     0.195440295669    12.000000000000
         C            2.314576055758    -2.350278816727     0.191051295669    12.000000000000
         C            3.079658055758    -1.175448816727     0.264878295669    12.000000000000
         N            0.903542055758    -2.139422816727     0.085814295669    14.003074004430
         C           -0.130155944242    -3.006213816727    -0.179488704331    12.000000000000
         C           -1.482174944242    -2.389541816727    -0.484182704331    12.000000000000
         C           -1.632756944242    -1.184398816727    -1.191260704331    12.000000000000
         C           -2.901130944242    -0.639588816727    -1.397712704331    12.000000000000
         C           -4.062687944242    -1.285969816727    -0.934673704331    12.000000000000
         C           -3.899463944242    -2.509104816727    -0.256098704331    12.000000000000
         C           -2.633862944242    -3.060362816727    -0.041164704331    12.000000000000
         C           -5.441186944242    -0.644227816727    -1.111020704331    12.000000000000
         N           -5.910663944242     0.373418183273    -0.143839704331    14.003074004430
         C           -4.946131944242     1.009585183273     0.783599295669    12.000000000000
         C           -4.798440944242     0.260767183273     2.133091295669    12.000000000000
         N           -6.076107944242     0.018981183273     2.844918295669    14.003074004430
         C           -6.576053944242     1.121787183273     3.675223295669    12.000000000000
         C           -7.051976944242    -0.594337816727     1.910633295669    12.000000000000
         C           -7.195098944242     0.143216183273     0.554532295669    12.000000000000
         O            0.006425055758    -4.219248816727    -0.156573704331    15.994914619570
         C            6.661026055758    -2.580066816727     0.505141295669    12.000000000000
         H           -0.232128944242     5.618427183273    -2.001129704331     1.007825032230
         H            2.116062055758     5.402882183273    -1.236858704331     1.007825032230
         H            1.468007055758     1.128947183273    -1.064907704331     1.007825032230
         H           -1.630201944242     3.553060183273    -2.240129704331     1.007825032230
         H            4.302827055758     5.006775183273    -0.693975704331     1.007825032230
         H            6.538311055758     4.182109183273     0.035959295669     1.007825032230
         H            6.220351055758    -0.050085816727     0.645259295669     1.007825032230
         H            4.841891055758    -4.579378816727     0.325339295669     1.007825032230
         H            2.390508055758    -4.504780816727     0.122403295669     1.007825032230
         H            2.586829055758    -0.216869816727     0.255374295669     1.007825032230
         H            0.626178055758    -1.169855816727     0.149117295669     1.007825032230
         H           -0.754512944242    -0.654584816727    -1.553103704331     1.007825032230
         H           -2.976571944242     0.315823183273    -1.916723704331     1.007825032230
         H           -4.770182944242    -3.040526816727     0.127113295669     1.007825032230
         H           -2.516248944242    -3.999872816727     0.493065295669     1.007825032230
         H           -5.486065944242    -0.167839816727    -2.100746704331     1.007825032230
         H           -6.178659944242    -1.460417816727    -1.107146704331     1.007825032230
         H           -4.084094944242     1.181117183273     0.334695295669     1.007825032230
         H           -5.534847944242     2.432724183273     1.159022295669     1.007825032230
         H           -3.925224944242     1.077862183273     2.997588295669     1.007825032230
         H           -4.221280944242    -0.883702816727     1.945000295669     1.007825032230
         H           -6.844290944242     1.987510183273     3.059177295669     1.007825032230
         H           -5.812770944242     1.425941183273     4.400617295669     1.007825032230
         H           -7.461308944242     0.800639183273     4.236420295669     1.007825032230
         H           -8.040332944242    -0.706106816727     2.425158295669     1.007825032230
         H           -6.530082944242    -2.005253816727     1.580014295669     1.007825032230
         H           -7.814757944242     1.529459183273     0.877941295669     1.007825032230
         H           -7.951532944242    -0.407857816727    -0.154587704331     1.007825032230
         H            7.036682055758    -2.168500816727     1.452522295669     1.007825032230
         H            7.168246055758    -2.047020816727    -0.311519704331     1.007825032230
         H            7.002764055758    -3.623272816727     0.457661295669     1.007825032230

  Charge       = 0
  Multiplicity = 1
  Basis Set: 6-311++G**
    Blend: 6-311++G**
  Basis Set: (6-311++G** AUX)
    Blend: AUG-CC-PVTZ-JKFIT

    Orbital Energies [Eh]
    ---------------------

    Doubly Occupied:

       1A    -20.522667     2A    -15.604556     3A    -15.602518
       4A    -15.587656     5A    -15.574890     6A    -15.569827
       7A    -15.567612     8A    -15.560296     9A    -11.376278
      10A    -11.365034    11A    -11.335112    12A    -11.317376
      13A    -11.314725    14A    -11.313022    15A    -11.311359
      16A    -11.302089    17A    -11.301547    18A    -11.301184
      19A    -11.295340    20A    -11.293448    21A    -11.289759
      22A    -11.280933    23A    -11.278307    24A    -11.265804
      25A    -11.261997    26A    -11.259006    27A    -11.254558
      28A    -11.253038    29A    -11.250687    30A    -11.248333
      31A    -11.247915    32A    -11.247656    33A    -11.247519
      34A    -11.240563    35A    -11.235743    36A    -11.231267
      37A    -11.225604    38A     -1.387646    39A     -1.344953
      40A     -1.279035    41A     -1.252374    42A     -1.246530
      43A     -1.241970    44A     -1.210289    45A     -1.201362
      46A     -1.163467    47A     -1.140289    48A     -1.116203
      49A     -1.075919    50A     -1.061178    51A     -1.049035
      52A     -1.038536    53A     -1.024998    54A     -1.008576
      55A     -1.002985    56A     -0.977834    57A     -0.947405
      58A     -0.928594    59A     -0.926910    60A     -0.901423
      61A     -0.873164    62A     -0.871005    63A     -0.858534
      64A     -0.848623    65A     -0.838570    66A     -0.832629
      67A     -0.826055    68A     -0.806651    69A     -0.778852
      70A     -0.754586    71A     -0.740026    72A     -0.731966
      73A     -0.722273    74A     -0.707129    75A     -0.699763
      76A     -0.683517    77A     -0.679436    78A     -0.668195
      79A     -0.661908    80A     -0.657833    81A     -0.652418
      82A     -0.646295    83A     -0.638338    84A     -0.630259
      85A     -0.622429    86A     -0.619705    87A     -0.614305
      88A     -0.609748    89A     -0.606741    90A     -0.603874
      91A     -0.602681    92A     -0.597526    93A     -0.595031
      94A     -0.593702    95A     -0.591898    96A     -0.583618
      97A     -0.581241    98A     -0.574006    99A     -0.565635
     100A     -0.561918   101A     -0.548509   102A     -0.545067
     103A     -0.544602   104A     -0.531973   105A     -0.524087
     106A     -0.517511   107A     -0.514565   108A     -0.509771
     109A     -0.507050   110A     -0.504057   111A     -0.500824
     112A     -0.487519   113A     -0.485284   114A     -0.481350
     115A     -0.458060   116A     -0.452691   117A     -0.443540
     118A     -0.429384   119A     -0.426774   120A     -0.421861
     121A     -0.415219   122A     -0.400738   123A     -0.392239
     124A     -0.379682   125A     -0.374249   126A     -0.347641
     127A     -0.346592   128A     -0.342949   129A     -0.315778
     130A     -0.314220   131A     -0.290859

  @DF-RHF Final Energy: -1572.29914797568085

   => Energetics <=

    Nuclear Repulsion Energy =           3713.5293343961225219
    One-Electron Energy =               -9524.9580458508826268
    Two-Electron Energy =                4239.1295634790794793
    Total Energy =                      -1572.2991479756810804

  Dipole Moment: [D]
     X:     0.9775      Y:     6.6698      Z:    -0.8977     Total:     6.8006

  Basis Set: (6-311++G** AUX)
    Blend: AUG-CC-PVTZ-RI
	 Reference Energy          =   -1572.2991479756808531 [Eh]
	 Singles Energy            =      -0.0000000000000000 [Eh]
	 Same-Spin Energy          =      -1.4698228264682940 [Eh]
	 Opposite-Spin Energy      =      -4.0480171900893138 [Eh]
	 Correlation Energy        =      -5.5178400165576083 [Eh]
	 Total Energy              =   -1577.8169879922384098 [Eh]

	 ================> DF-SCS-MP2 Energies <==================
	-----------------------------------------------------------
	 SCS Same-Spin Scale       =       0.3333333333333333 [-]
	 SCS Opposite-Spin Scale   =       1.2000000000000000 [-]
	 SCS Same-Spin Energy      =      -0.4899409421560980 [Eh]
	 SCS Opposite-Spin Energy  =      -4.8576206281071768 [Eh]
	 SCS Correlation Energy    =      -5.3475615702632746 [Eh]
	 SCS Total Energy          =   -1577.6467095459440770 [Eh]
	-----------------------------------------------------------

*** Psi4 exiting successfully. Buy a developer a beer!
