                               Psi4 1.3.2 release

  ==> Input File <==

--------------------------------------------------------------------------
molecule {
0 1
 C    6.513382    1.606558    1.940471
 C    5.958461    0.324883    1.825680
 C    4.837733    0.112255    0.997386
 C    4.354855    1.254053    0.312224
 N    4.873880    2.484429    0.406322
 C    5.933396    2.650324    1.211493
 C    4.174636   -1.231730    0.823153
 C    4.609468   -2.428768    1.415761
 C    3.854427   -3.566076    1.113248
 N    2.778737   -3.566342    0.332778
 C    2.422714   -2.369632   -0.181131
 N    3.079498   -1.226558    0.035968
 N    1.292208   -2.393943   -0.979667
 C    0.573515   -1.401655   -1.737377
 C   -0.401546   -1.833864   -2.688457
 C   -1.105012   -0.840247   -3.387790
 C   -0.925252    0.531420   -3.182756
 C    0.015853    0.934838   -2.230476
 C    0.757042   -0.028077   -1.529613
 N    0.275020    2.282017   -1.875396
 C   -0.631493    3.290530   -1.671099
 C   -1.633193    2.942147   -0.591140
 C   -1.237546    2.355676    0.622043
 C   -2.196744    1.931737    1.541884
 C   -3.571632    2.075069    1.279369
 C   -3.948245    2.746846    0.099954
 C   -2.994332    3.196513   -0.815936
 C   -4.611969    1.457619    2.213456
 N   -4.944732    0.033408    2.013365
 C   -3.982365   -1.001187    2.456791
 C   -3.037916   -1.529267    1.345351
 N   -3.738194   -2.010004    0.131904
 C   -4.290931   -3.368156    0.184596
 C   -4.653690   -0.943081   -0.341885
 C   -5.601475   -0.377248    0.750060
 O   -0.650376    4.346508   -2.277072
 C   -0.720500   -3.294133   -2.962315
 H    7.372344    1.793691    2.578132
 H    6.410371   -0.481253    2.398026
 H    3.509787    1.164524   -0.361451
 H    6.332806    3.661552    1.269055
 H    5.477451   -2.509280    2.058488
 H    4.132792   -4.535956    1.524543
 H    0.964506   -3.344661   -1.062514
 H   -1.858773   -1.135695   -4.116965
 H   -1.510837    1.262059   -3.728655
 H    1.463853    0.288383   -0.777953
 H    1.233268    2.602015   -1.882153
 H   -0.181655    2.180960    0.811470
 H   -1.863427    1.420410    2.444886
 H   -5.003392    2.879578   -0.138441
 H   -3.289601    3.669424   -1.749187
 H   -4.274395    1.570977    3.253631
 H   -5.549505    2.025257    2.126186
 H   -3.464028   -0.686180    3.313133
 H   -4.842944   -2.255286    2.895996
 H   -2.260319   -2.675595    1.932133
 H   -2.259485   -0.693213    1.009551
 H   -5.101745   -3.435868    0.918652
 H   -3.507858   -4.085499    0.455316
 H   -4.681536   -3.654127   -0.798749
 H   -5.220859   -1.307253   -1.227157
 H   -3.781918    0.192179   -0.805833
 H   -6.576225   -1.561089    1.106226
 H   -6.233954    0.449169    0.354737
 H   -1.218878   -3.757968   -2.098852
 H    0.186989   -3.876504   -3.175550
 H   -1.387765   -3.433077   -3.824100
}
memory 20GB
set_num_threads(6)
psi4_io.set_default_path("/scratch/bdw2292")
set freeze_core True
E, wfn = energy('mp2/6-311++G**',return_wfn=True)
oeprop(wfn,"WIBERG_LOWDIN_INDICES")
clean()
--------------------------------------------------------------------------

    Molecular point group: c1

    Geometry (in Angstrom), charge = 0, multiplicity = 1:

       Center              X                  Y                   Z               Mass
    ------------   -----------------  -----------------  -----------------  -----------------
         C            6.544798358793     1.549980232036     2.031726903646    12.000000000000
         C            5.989877358793     0.268305232036     1.916935903646    12.000000000000
         C            4.869149358793     0.055677232036     1.088641903646    12.000000000000
         C            4.386271358793     1.197475232036     0.403479903646    12.000000000000
         N            4.905296358793     2.427851232036     0.497577903646    14.003074004430
         C            5.964812358793     2.593746232036     1.302748903646    12.000000000000
         C            4.206052358793    -1.288307767964     0.914408903646    12.000000000000
         C            4.640884358793    -2.485345767964     1.507016903646    12.000000000000
         C            3.885843358793    -3.622653767964     1.204503903646    12.000000000000
         N            2.810153358793    -3.622919767964     0.424033903646    14.003074004430
         C            2.454130358793    -2.426209767964    -0.089875096354    12.000000000000
         N            3.110914358793    -1.283135767964     0.127223903646    14.003074004430
         N            1.323624358793    -2.450520767964    -0.888411096354    14.003074004430
         C            0.604931358793    -1.458232767964    -1.646121096354    12.000000000000
         C           -0.370129641207    -1.890441767964    -2.597201096354    12.000000000000
         C           -1.073595641207    -0.896824767964    -3.296534096354    12.000000000000
         C           -0.893835641207     0.474842232036    -3.091500096354    12.000000000000
         C            0.047269358793     0.878260232036    -2.139220096354    12.000000000000
         C            0.788458358793    -0.084654767964    -1.438357096354    12.000000000000
         N            0.306436358793     2.225439232036    -1.784140096354    14.003074004430
         C           -0.600076641207     3.233952232036    -1.579843096354    12.000000000000
         C           -1.601776641207     2.885569232036    -0.499884096354    12.000000000000
         C           -1.206129641207     2.299098232036     0.713298903646    12.000000000000
         C           -2.165327641207     1.875159232036     1.633139903646    12.000000000000
         C           -3.540215641207     2.018491232036     1.370624903646    12.000000000000
         C           -3.916828641207     2.690268232036     0.191209903646    12.000000000000
         C           -2.962915641207     3.139935232036    -0.724680096354    12.000000000000
         C           -4.580552641207     1.401041232036     2.304711903646    12.000000000000
         N           -4.913315641207    -0.023169767964     2.104620903646    14.003074004430
         C           -3.950948641207    -1.057764767964     2.548046903646    12.000000000000
         C           -3.006499641207    -1.585844767964     1.436606903646    12.000000000000
         N           -3.706777641207    -2.066581767964     0.223159903646    14.003074004430
         C           -4.259514641207    -3.424733767964     0.275851903646    12.000000000000
         C           -4.622273641207    -0.999658767964    -0.250629096354    12.000000000000
         C           -5.570058641207    -0.433825767964     0.841315903646    12.000000000000
         O           -0.618959641207     4.289930232036    -2.185816096354    15.994914619570
         C           -0.689083641207    -3.350710767964    -2.871059096354    12.000000000000
         H            7.403760358793     1.737113232036     2.669387903646     1.007825032230
         H            6.441787358793    -0.537830767964     2.489281903646     1.007825032230
         H            3.541203358793     1.107946232036    -0.270195096354     1.007825032230
         H            6.364222358793     3.604974232036     1.360310903646     1.007825032230
         H            5.508867358793    -2.565857767964     2.149743903646     1.007825032230
         H            4.164208358793    -4.592533767964     1.615798903646     1.007825032230
         H            0.995922358793    -3.401238767964    -0.971258096354     1.007825032230
         H           -1.827356641207    -1.192272767964    -4.025709096354     1.007825032230
         H           -1.479420641207     1.205481232036    -3.637399096354     1.007825032230
         H            1.495269358793     0.231805232036    -0.686697096354     1.007825032230
         H            1.264684358793     2.545437232036    -1.790897096354     1.007825032230
         H           -0.150238641207     2.124382232036     0.902725903646     1.007825032230
         H           -1.832010641207     1.363832232036     2.536141903646     1.007825032230
         H           -4.971975641207     2.823000232036    -0.047185096354     1.007825032230
         H           -3.258184641207     3.612846232036    -1.657931096354     1.007825032230
         H           -4.242978641207     1.514399232036     3.344886903646     1.007825032230
         H           -5.518088641207     1.968679232036     2.217441903646     1.007825032230
         H           -3.432611641207    -0.742757767964     3.404388903646     1.007825032230
         H           -4.811527641207    -2.311863767964     2.987251903646     1.007825032230
         H           -2.228902641207    -2.732172767964     2.023388903646     1.007825032230
         H           -2.228068641207    -0.749790767964     1.100806903646     1.007825032230
         H           -5.070328641207    -3.492445767964     1.009907903646     1.007825032230
         H           -3.476441641207    -4.142076767964     0.546571903646     1.007825032230
         H           -4.650119641207    -3.710704767964    -0.707493096354     1.007825032230
         H           -5.189442641207    -1.363830767964    -1.135901096354     1.007825032230
         H           -3.750501641207     0.135601232036    -0.714577096354     1.007825032230
         H           -6.544808641207    -1.617666767964     1.197481903646     1.007825032230
         H           -6.202537641207     0.392591232036     0.445992903646     1.007825032230
         H           -1.187461641207    -3.814545767964    -2.007596096354     1.007825032230
         H            0.218405358793    -3.933081767964    -3.084294096354     1.007825032230
         H           -1.356348641207    -3.489654767964    -3.732844096354     1.007825032230

  Charge       = 0
  Multiplicity = 1
  Basis Set: 6-311++G**
    Blend: 6-311++G**
  Basis Set: (6-311++G** AUX)
    Blend: AUG-CC-PVTZ-JKFIT

    Orbital Energies [Eh]
    ---------------------

    Doubly Occupied:

       1A    -20.542350     2A    -15.603030     3A    -15.580143
       4A    -15.576164     5A    -15.572668     6A    -15.572374
       7A    -15.568519     8A    -15.555613     9A    -11.374273
      10A    -11.364727    11A    -11.332603    12A    -11.312276
      13A    -11.311433    14A    -11.306399    15A    -11.303616
      16A    -11.302810    17A    -11.300091    18A    -11.295342
      19A    -11.294830    20A    -11.289684    21A    -11.284870
      22A    -11.281126    23A    -11.275662    24A    -11.260528
      25A    -11.257348    26A    -11.253540    27A    -11.251931
      28A    -11.251677    29A    -11.250324    30A    -11.250167
      31A    -11.247145    32A    -11.246467    33A    -11.245481
      34A    -11.243595    35A    -11.236196    36A    -11.234750
      37A    -11.231747    38A     -1.395658    39A     -1.343510
      40A     -1.272601    41A     -1.252202    42A     -1.246576
      43A     -1.241475    44A     -1.207974    45A     -1.201269
      46A     -1.161832    47A     -1.140844    48A     -1.111888
      49A     -1.072626    50A     -1.057487    51A     -1.045451
      52A     -1.038832    53A     -1.025628    54A     -1.010954
      55A     -1.001320    56A     -0.978728    57A     -0.944656
      58A     -0.930821    59A     -0.923274    60A     -0.899855
      61A     -0.870507    62A     -0.867870    63A     -0.854893
      64A     -0.848633    65A     -0.837855    66A     -0.833675
      67A     -0.823328    68A     -0.813079    69A     -0.778572
      70A     -0.750430    71A     -0.745938    72A     -0.723422
      73A     -0.711742    74A     -0.708051    75A     -0.703514
      76A     -0.682548    77A     -0.678708    78A     -0.666358
      79A     -0.665943    80A     -0.656846    81A     -0.653964
      82A     -0.651528    83A     -0.646008    84A     -0.632559
      85A     -0.625224    86A     -0.618927    87A     -0.618128
      88A     -0.613226    89A     -0.608746    90A     -0.604262
      91A     -0.601510    92A     -0.600907    93A     -0.596098
      94A     -0.590251    95A     -0.583732    96A     -0.582790
      97A     -0.579308    98A     -0.574318    99A     -0.556903
     100A     -0.554815   101A     -0.541398   102A     -0.540204
     103A     -0.539692   104A     -0.530238   105A     -0.526100
     106A     -0.524267   107A     -0.515625   108A     -0.511413
     109A     -0.508461   110A     -0.501478   111A     -0.496467
     112A     -0.493476   113A     -0.486302   114A     -0.479767
     115A     -0.456239   116A     -0.449635   117A     -0.436997
     118A     -0.436110   119A     -0.423579   120A     -0.416140
     121A     -0.412435   122A     -0.396281   123A     -0.393579
     124A     -0.379526   125A     -0.372811   126A     -0.344731
     127A     -0.343353   128A     -0.342049   129A     -0.320113
     130A     -0.310813   131A     -0.294569

  @DF-RHF Final Energy: -1572.30337014254155

   => Energetics <=

    Nuclear Repulsion Energy =           3895.5344369630574874
    One-Electron Energy =               -9889.2637809134230338
    Two-Electron Energy =                4421.4259738078244482
    Total Energy =                      -1572.3033701425410982

  Dipole Moment: [D]
     X:     2.5107      Y:    -4.1777      Z:     3.1366     Total:     5.7961

  Basis Set: (6-311++G** AUX)
    Blend: AUG-CC-PVTZ-RI
	 Reference Energy          =   -1572.3033701425415529 [Eh]
	 Singles Energy            =      -0.0000000000000000 [Eh]
	 Same-Spin Energy          =      -1.4741176507382927 [Eh]
	 Opposite-Spin Energy      =      -4.0534144838359065 [Eh]
	 Correlation Energy        =      -5.5275321345741997 [Eh]
	 Total Energy              =   -1577.8309022771156833 [Eh]

	 ================> DF-SCS-MP2 Energies <==================
	-----------------------------------------------------------
	 SCS Same-Spin Scale       =       0.3333333333333333 [-]
	 SCS Opposite-Spin Scale   =       1.2000000000000000 [-]
	 SCS Same-Spin Energy      =      -0.4913725502460976 [Eh]
	 SCS Opposite-Spin Energy  =      -4.8640973806030878 [Eh]
	 SCS Correlation Energy    =      -5.3554699308491855 [Eh]
	 SCS Total Energy          =   -1577.6588400733908202 [Eh]
	-----------------------------------------------------------

*** Psi4 exiting successfully. Buy a developer a beer!
