 Gaussian 09, Revision A.02,
 Gaussian 09:  EM64L-G09RevA.02 11-Jun-2009

 --------------------------------------------------
 #P opt=(,maxcycle=400) wB97XD/6-31G* MaxDisk=100GB
 --------------------------------------------------

 -----------------------------------------------------------------
 MOLECULE0 Rotatable Bond Optimization on g2-node38.bme.utexas.edu
 -----------------------------------------------------------------
 Symbolic Z-matrix:
 Charge =  0 Multiplicity = 1

 SCF Done:  E(RwB97XD) =  -1581.44042016     A.U. after   16 cycles
 SCF Done:  E(RwB97XD) =  -1581.50979219     A.U. after   14 cycles
 SCF Done:  E(RwB97XD) =  -1581.63390224     A.U. after   15 cycles
 SCF Done:  E(RwB97XD) =  -1581.59778503     A.U. after   17 cycles
 SCF Done:  E(RwB97XD) =  -1581.66867922     A.U. after   16 cycles
 SCF Done:  E(RwB97XD) =  -1581.74220705     A.U. after   17 cycles
 SCF Done:  E(RwB97XD) =  -1581.73658551     A.U. after   17 cycles
 SCF Done:  E(RwB97XD) =  -1581.75406748     A.U. after   17 cycles
 SCF Done:  E(RwB97XD) =  -1581.74124189     A.U. after   17 cycles
 SCF Done:  E(RwB97XD) =  -1581.75539236     A.U. after   17 cycles
 SCF Done:  E(RwB97XD) =  -1581.76727116     A.U. after    9 cycles
 SCF Done:  E(RwB97XD) =  -1581.76727125     A.U. after    8 cycles
 SCF Done:  E(RwB97XD) =  -1581.76727134     A.U. after    8 cycles
 SCF Done:  E(RwB97XD) =  -1581.76727131     A.U. after    8 cycles
 SCF Done:  E(RwB97XD) =  -1581.76727103     A.U. after   10 cycles
 SCF Done:  E(RwB97XD) =  -1581.76727129     A.U. after   10 cycles
 SCF Done:  E(RwB97XD) =  -1581.76727124     A.U. after    8 cycles
 SCF Done:  E(RwB97XD) =  -1581.76727120     A.U. after    7 cycles
 SCF Done:  E(RwB97XD) =  -1581.76727113     A.U. after    7 cycles
 SCF Done:  E(RwB97XD) =  -1581.76727111     A.U. after    6 cycles
 Optimization completed.
    -- Stationary point found.

                         Standard orientation:
 ---------------------------------------------------------------------
 Center     Atomic      Atomic             Coordinates (Angstroms)
 Number     Number       Type             X           Y           Z
 ---------------------------------------------------------------------
      1          6           0       -0.962817    4.415221    0.182934
      2          6           0        0.422719    4.364235    0.244748
      3          6           0        1.083588    3.217646   -0.199176
      4          6           0        0.292236    2.169783   -0.683487
      5          7           0       -1.038264    2.203735   -0.746691
      6          6           0       -1.649469    3.313456   -0.317256
      7          6           0        2.562374    3.099692   -0.157483
      8          6           0        3.389637    4.218362   -0.223588
      9          6           0        4.758608    3.980416   -0.146565
     10          7           0        5.281770    2.770181   -0.027800
     11          6           0        4.396965    1.750803    0.002669
     12          7           0        3.066874    1.862850   -0.054003
     13          7           0        4.995662    0.525548    0.112058
     14          6           0        4.483922   -0.780954    0.145417
     15          6           0        5.412748   -1.839374    0.241508
     16          6           0        4.914748   -3.137527    0.265451
     17          6           0        3.556631   -3.434535    0.194818
     18          6           0        2.660175   -2.374259    0.098180
     19          6           0        3.122878   -1.055831    0.080906
     20          7           0        1.268393   -2.526724   -0.008338
     21          6           0        0.499390   -3.665043   -0.009436
     22          6           0       -0.953725   -3.359968   -0.233862
     23          6           0       -1.355949   -2.319292   -1.078295
     24          6           0       -2.690372   -1.963925   -1.163548
     25          6           0       -3.655014   -2.634015   -0.407328
     26          6           0       -3.261447   -3.714062    0.380100
     27          6           0       -1.919941   -4.083986    0.460290
     28          6           0       -5.068998   -2.081380   -0.408062
     29          7           0       -4.997285   -0.645743   -0.227841
     30          6           0       -6.088426    0.164918   -0.728225
     31          6           0       -5.594221    1.617582   -0.808233
     32          7           0       -5.076424    2.140060    0.454625
     33          6           0       -6.123081    2.519916    1.389482
     34          6           0       -4.099933    1.214225    1.027706
     35          6           0       -4.593834   -0.229903    1.104680
     36          8           0        0.926180   -4.791468    0.179914
     37          6           0        6.896537   -1.581306    0.315221
     38          1           0       -1.506624    5.287569    0.529183
     39          1           0        0.981474    5.198220    0.659527
     40          1           0        0.772764    1.265589   -1.049260
     41          1           0       -2.738106    3.312875   -0.356490
     42          1           0        3.001178    5.220748   -0.351672
     43          1           0        5.468252    4.804525   -0.185440
     44          1           0        6.000010    0.614959    0.150001
     45          1           0        5.621936   -3.959717    0.341002
     46          1           0        3.197321   -4.453842    0.216645
     47          1           0        2.425425   -0.231471    0.018855
     48          1           0        0.755591   -1.658170   -0.035408
     49          1           0       -0.624697   -1.780578   -1.675283
     50          1           0       -2.991277   -1.116345   -1.770253
     51          1           0       -4.002025   -4.248114    0.970706
     52          1           0       -1.605663   -4.906020    1.095768
     53          1           0       -5.547397   -2.277204   -1.375885
     54          1           0       -5.679753   -2.591152    0.360449
     55          1           0       -6.360453   -0.178470   -1.732965
     56          1           0       -6.996847    0.092793   -0.097668
     57          1           0       -6.394513    2.278082   -1.160131
     58          1           0       -4.779869    1.648160   -1.543023
     59          1           0       -6.766543    1.690489    1.730120
     60          1           0       -6.767869    3.272038    0.922336
     61          1           0       -5.665777    2.972509    2.275655
     62          1           0       -3.807487    1.580859    2.017892
     63          1           0       -3.208311    1.211985    0.390021
     64          1           0       -5.422305   -0.338812    1.832443
     65          1           0       -3.773865   -0.869625    1.445837
     66          1           0        7.169444   -0.977672    1.191254
     67          1           0        7.272087   -1.063070   -0.577323
     68          1           0        7.443815   -2.524113    0.392321
 ---------------------------------------------------------------------

 The electronic state is 1-A.
 Alpha  occ. eigenvalues --  -19.23379 -14.49005 -14.48314 -14.45787 -14.45761
 Alpha  occ. eigenvalues --  -14.45739 -14.44046 -14.44038 -10.41563 -10.40078
 Alpha  occ. eigenvalues --  -10.37271 -10.35974 -10.34539 -10.34468 -10.34129
 Alpha  occ. eigenvalues --  -10.33930 -10.33374 -10.32946 -10.32705 -10.31949
 Alpha  occ. eigenvalues --  -10.31827 -10.31519 -10.31417 -10.31192 -10.31169
 Alpha  occ. eigenvalues --  -10.30889 -10.30870 -10.30853 -10.30552 -10.30358
 Alpha  occ. eigenvalues --  -10.30264 -10.30172 -10.29913 -10.29680 -10.29391
 Alpha  occ. eigenvalues --  -10.28728 -10.28121  -1.13411  -1.11960  -1.05430
 Alpha  occ. eigenvalues --   -1.04713  -1.04331  -1.03543  -1.00405  -1.00331
 Alpha  occ. eigenvalues --   -0.96055  -0.94510  -0.92546  -0.89286  -0.88150
 Alpha  occ. eigenvalues --   -0.86857  -0.86312  -0.85718  -0.84569  -0.83574
 Alpha  occ. eigenvalues --   -0.82286  -0.79500  -0.77809  -0.77538  -0.76039
 Alpha  occ. eigenvalues --   -0.73618  -0.73236  -0.72805  -0.72143  -0.70826
 Alpha  occ. eigenvalues --   -0.70373  -0.69432  -0.67730  -0.66148  -0.64806
 Alpha  occ. eigenvalues --   -0.64094  -0.62991  -0.62042  -0.61192  -0.59917
 Alpha  occ. eigenvalues --   -0.58714  -0.58362  -0.57060  -0.56539  -0.56032
 Alpha  occ. eigenvalues --   -0.55569  -0.55525  -0.55397  -0.54701  -0.54417
 Alpha  occ. eigenvalues --   -0.53957  -0.53502  -0.52921  -0.52494  -0.51912
 Alpha  occ. eigenvalues --   -0.51754  -0.51328  -0.51010  -0.50940  -0.50287
 Alpha  occ. eigenvalues --   -0.50082  -0.49833  -0.49736  -0.49324  -0.48430
 Alpha  occ. eigenvalues --   -0.48083  -0.47143  -0.46986  -0.46461  -0.45819
 Alpha  occ. eigenvalues --   -0.45585  -0.45143  -0.44262  -0.43781  -0.43394
 Alpha  occ. eigenvalues --   -0.43154  -0.42820  -0.42357  -0.42022  -0.41731
 Alpha  occ. eigenvalues --   -0.41188  -0.40847  -0.39741  -0.37889  -0.37064
 Alpha  occ. eigenvalues --   -0.35091  -0.34920  -0.33547  -0.33444  -0.32987
 Alpha  occ. eigenvalues --   -0.32909  -0.31703  -0.30238  -0.28993  -0.27108
 Alpha  occ. eigenvalues --   -0.26733
 Alpha virt. eigenvalues --    0.00286   0.03456   0.03833   0.04756   0.06672
 Alpha virt. eigenvalues --    0.07760   0.08454   0.10854   0.14658   0.15123
 Alpha virt. eigenvalues --    0.15970   0.16623   0.17462   0.18130   0.18638

 Mulliken atomic charges:
              1
     1  C   -0.199196
     2  C   -0.157911
     3  C    0.038253
     4  C    0.007384
     5  N   -0.434470
     6  C    0.021366
     7  C    0.288353
     8  C   -0.255809
     9  C    0.051348
    10  N   -0.498429
    11  C    0.718944
    12  N   -0.564882
    13  N   -0.813032
    14  C    0.297622
    15  C    0.117107
    16  C   -0.239798
    17  C   -0.193897
    18  C    0.361265
    19  C   -0.278833
    20  N   -0.763688
    21  C    0.586339
    22  C    0.020136
    23  C   -0.219160
    24  C   -0.174053
    25  C    0.111757
    26  C   -0.220667
    27  C   -0.184913
    28  C   -0.215657
    29  N   -0.410336
    30  C   -0.165826
    31  C   -0.174975
    32  N   -0.400895
    33  C   -0.348818
    34  C   -0.191210
    35  C   -0.170139
    36  O   -0.513545
    37  C   -0.610690
    38  H    0.184390
    39  H    0.183236
    40  H    0.188765
    41  H    0.206704
    42  H    0.180778
    43  H    0.188303
    44  H    0.370964
    45  H    0.160099
    46  H    0.214309
    47  H    0.206817
    48  H    0.361123
    49  H    0.177731
    50  H    0.183556
    51  H    0.165953
    52  H    0.194517
    53  H    0.174302
    54  H    0.142343
    55  H    0.159733
    56  H    0.130665
    57  H    0.155375
    58  H    0.171837
    59  H    0.140109
    60  H    0.167176
    61  H    0.167771
    62  H    0.154264
    63  H    0.192828
    64  H    0.128416
    65  H    0.175756
    66  H    0.181463
    67  H    0.181106
    68  H    0.190565
 Sum of Mulliken atomic charges =   0.00000

 Dipole moment (field-independent basis, Debye):
    X=             -1.8060    Y=              5.9084    Z=              0.7066  Tot=              6.2186
 Quadrupole moment (field-independent basis, Debye-Ang):
   XX=           -182.7145   YY=           -211.6597   ZZ=           -215.9373
   XY=              8.0054   XZ=             -1.8979   YZ=              0.5601

 Normal termination of Gaussian 09 at Tue Mar 10 22:56:34 2020.
