                               Psi4 1.3.2 release

  ==> Input File <==

--------------------------------------------------------------------------
molecule {
0 1
 C    1.655398    4.956802   -3.287653
 C    2.334275    4.706428   -2.088334
 C    2.797764    3.407531   -1.798878
 C    2.534511    2.421806   -2.782110
 N    1.882418    2.643821   -3.931329
 C    1.454809    3.891962   -4.172027
 C    3.524204    3.043138   -0.529327
 C    3.802806    3.933197    0.523395
 C    4.465606    3.390257    1.630933
 N    4.834973    2.115715    1.729518
 C    4.526957    1.342220    0.671895
 N    3.897056    1.753441   -0.427117
 N    4.906430    0.032394    0.773318
 C    4.187506   -1.180423    0.526990
 C    4.906682   -2.402082    0.362725
 C    4.154521   -3.562081    0.120267
 C    2.759003   -3.578831    0.024022
 C    2.063250   -2.376254    0.194240
 C    2.788078   -1.197373    0.442780
 N    0.640813   -2.231076    0.105194
 C   -0.339022   -3.113912   -0.291205
 C   -1.725868   -2.548032   -0.527083
 C   -1.957617   -1.273109   -1.069296
 C   -3.260527   -0.785316   -1.193216
 C   -4.374806   -1.555610   -0.810272
 C   -4.128736   -2.853174   -0.320575
 C   -2.829373   -3.349037   -0.190586
 C   -5.792977   -0.983395   -0.864729
 N   -6.277048   -0.158213    0.256024
 C   -5.783090    1.229800    0.406682
 C   -4.553363    1.378958    1.340474
 N   -4.739684    0.775608    2.682444
 C   -5.460521    1.581521    3.674203
 C   -5.191869   -0.627890    2.517428
 C   -6.422619   -0.790700    1.587492
 O   -0.133919   -4.308327   -0.436883
 C    6.421676   -2.493578    0.433558
 H    1.290427    5.950065   -3.532130
 H    2.492270    5.534447   -1.401480
 H    2.865894    1.398156   -2.627959
 H    0.931214    4.032792   -5.116131
 H    3.530784    4.981310    0.528614
 H    4.723288    3.995343    2.499742
 H    5.892320   -0.021723    0.980680
 H    4.670461   -4.512503   -0.010496
 H    2.219821   -4.495269   -0.181141
 H    2.264906   -0.258518    0.561595
 H    0.309445   -1.297502    0.302577
 H   -1.113306   -0.664099   -1.383447
 H   -3.406869    0.221228   -1.584613
 H   -4.962326   -3.480275   -0.006024
 H   -2.652647   -4.349820    0.195878
 H   -5.886789   -0.373747   -1.774549
 H   -6.499930   -1.819168   -0.965338
 H   -5.582127    1.707868   -0.638416
 H   -6.894719    2.016241    1.015391
 H   -4.262560    2.719315    1.497525
 H   -3.591029    0.867774    0.850577
 H   -6.504010    1.729819    3.374417
 H   -4.981566    2.561007    3.786097
 H   -5.440284    1.085098    4.651356
 H   -5.436985   -1.127277    3.669047
 H   -4.086757   -1.355541    1.967510
 H   -7.573139   -0.142033    2.251930
 H   -6.714089   -1.965984    1.466351
 H    6.820195   -2.176648    1.408114
 H    6.888880   -1.863129   -0.328258
 H    6.790638   -3.509043    0.266645
}
memory 20GB
set_num_threads(6)
psi4_io.set_default_path("/scratch/bdw2292")
set freeze_core True
E, wfn = energy('mp2/6-311++G**',return_wfn=True)
oeprop(wfn,"WIBERG_LOWDIN_INDICES")
clean()
--------------------------------------------------------------------------

    Molecular point group: c1

    Geometry (in Angstrom), charge = 0, multiplicity = 1:

       Center              X                  Y                   Z               Mass
    ------------   -----------------  -----------------  -----------------  -----------------
         C            1.520744090114     4.930585103795    -3.198137746850    12.000000000000
         C            2.199621090114     4.680211103795    -1.998818746850    12.000000000000
         C            2.663110090114     3.381314103795    -1.709362746850    12.000000000000
         C            2.399857090114     2.395589103795    -2.692594746850    12.000000000000
         N            1.747764090114     2.617604103795    -3.841813746850    14.003074004430
         C            1.320155090114     3.865745103795    -4.082511746850    12.000000000000
         C            3.389550090114     3.016921103795    -0.439811746850    12.000000000000
         C            3.668152090114     3.906980103795     0.612910253150    12.000000000000
         C            4.330952090114     3.364040103795     1.720448253150    12.000000000000
         N            4.700319090114     2.089498103795     1.819033253150    14.003074004430
         C            4.392303090114     1.316003103795     0.761410253150    12.000000000000
         N            3.762402090114     1.727224103795    -0.337601746850    14.003074004430
         N            4.771776090114     0.006177103795     0.862833253150    14.003074004430
         C            4.052852090114    -1.206639896205     0.616505253150    12.000000000000
         C            4.772028090114    -2.428298896205     0.452240253150    12.000000000000
         C            4.019867090114    -3.588297896205     0.209782253150    12.000000000000
         C            2.624349090114    -3.605047896205     0.113537253150    12.000000000000
         C            1.928596090114    -2.402470896205     0.283755253150    12.000000000000
         C            2.653424090114    -1.223589896205     0.532295253150    12.000000000000
         N            0.506159090114    -2.257292896205     0.194709253150    14.003074004430
         C           -0.473675909886    -3.140128896205    -0.201689746850    12.000000000000
         C           -1.860521909886    -2.574248896205    -0.437567746850    12.000000000000
         C           -2.092270909886    -1.299325896205    -0.979780746850    12.000000000000
         C           -3.395180909886    -0.811532896205    -1.103700746850    12.000000000000
         C           -4.509459909886    -1.581826896205    -0.720756746850    12.000000000000
         C           -4.263389909886    -2.879390896205    -0.231059746850    12.000000000000
         C           -2.964026909886    -3.375253896205    -0.101070746850    12.000000000000
         C           -5.927630909886    -1.009611896205    -0.775213746850    12.000000000000
         N           -6.411701909886    -0.184429896205     0.345539253150    14.003074004430
         C           -5.917743909886     1.203583103795     0.496197253150    12.000000000000
         C           -4.688016909886     1.352741103795     1.429989253150    12.000000000000
         N           -4.874337909886     0.749391103795     2.771959253150    14.003074004430
         C           -5.595174909886     1.555304103795     3.763718253150    12.000000000000
         C           -5.326522909886    -0.654106896205     2.606943253150    12.000000000000
         C           -6.557272909886    -0.816916896205     1.677007253150    12.000000000000
         O           -0.268572909886    -4.334543896205    -0.347367746850    15.994914619570
         C            6.287022090114    -2.519794896205     0.523073253150    12.000000000000
         H            1.155773090114     5.923848103795    -3.442614746850     1.007825032230
         H            2.357616090114     5.508230103795    -1.311964746850     1.007825032230
         H            2.731240090114     1.371939103795    -2.538443746850     1.007825032230
         H            0.796560090114     4.006575103795    -5.026615746850     1.007825032230
         H            3.396130090114     4.955093103795     0.618129253150     1.007825032230
         H            4.588634090114     3.969126103795     2.589257253150     1.007825032230
         H            5.757666090114    -0.047939896205     1.070195253150     1.007825032230
         H            4.535807090114    -4.538719896205     0.079019253150     1.007825032230
         H            2.085167090114    -4.521485896205    -0.091625746850     1.007825032230
         H            2.130252090114    -0.284734896205     0.651110253150     1.007825032230
         H            0.174791090114    -1.323718896205     0.392092253150     1.007825032230
         H           -1.247959909886    -0.690315896205    -1.293931746850     1.007825032230
         H           -3.541522909886     0.195011103795    -1.495097746850     1.007825032230
         H           -5.096979909886    -3.506491896205     0.083491253150     1.007825032230
         H           -2.787300909886    -4.376036896205     0.285393253150     1.007825032230
         H           -6.021442909886    -0.399963896205    -1.685033746850     1.007825032230
         H           -6.634583909886    -1.845384896205    -0.875822746850     1.007825032230
         H           -5.716780909886     1.681651103795    -0.548900746850     1.007825032230
         H           -7.029372909886     1.990024103795     1.104906253150     1.007825032230
         H           -4.397213909886     2.693098103795     1.587040253150     1.007825032230
         H           -3.725682909886     0.841557103795     0.940092253150     1.007825032230
         H           -6.638663909886     1.703602103795     3.463932253150     1.007825032230
         H           -5.116219909886     2.534790103795     3.875612253150     1.007825032230
         H           -5.574937909886     1.058881103795     4.740871253150     1.007825032230
         H           -5.571638909886    -1.153493896205     3.758562253150     1.007825032230
         H           -4.221410909886    -1.381757896205     2.057025253150     1.007825032230
         H           -7.707792909886    -0.168249896205     2.341445253150     1.007825032230
         H           -6.848742909886    -1.992200896205     1.555866253150     1.007825032230
         H            6.685541090114    -2.202864896205     1.497629253150     1.007825032230
         H            6.754226090114    -1.889345896205    -0.238742746850     1.007825032230
         H            6.655984090114    -3.535259896205     0.356160253150     1.007825032230

  Charge       = 0
  Multiplicity = 1
  Basis Set: 6-311++G**
    Blend: 6-311++G**
  Basis Set: (6-311++G** AUX)
    Blend: AUG-CC-PVTZ-JKFIT

    Orbital Energies [Eh]
    ---------------------

    Doubly Occupied:

       1A    -20.524654     2A    -15.604429     3A    -15.585255
       4A    -15.578648     5A    -15.575132     6A    -15.574033
       7A    -15.572279     8A    -15.556761     9A    -11.367644
      10A    -11.366070    11A    -11.332175    12A    -11.316068
      13A    -11.311997    14A    -11.311530    15A    -11.311515
      16A    -11.300815    17A    -11.300540    18A    -11.294979
      19A    -11.294684    20A    -11.292386    21A    -11.285031
      22A    -11.281440    23A    -11.275033    24A    -11.263039
      25A    -11.262059    26A    -11.261470    27A    -11.260561
      28A    -11.258017    29A    -11.254753    30A    -11.253158
      31A    -11.250656    32A    -11.247487    33A    -11.242143
      34A    -11.238146    35A    -11.233977    36A    -11.231692
      37A    -11.220943    38A     -1.389696    39A     -1.346560
      40A     -1.271168    41A     -1.252190    42A     -1.247828
      43A     -1.241336    44A     -1.210822    45A     -1.201897
      46A     -1.167297    47A     -1.138753    48A     -1.111658
      49A     -1.073084    50A     -1.062668    51A     -1.044653
      52A     -1.037679    53A     -1.030023    54A     -1.005840
      55A     -0.995047    56A     -0.979745    57A     -0.946734
      58A     -0.930051    59A     -0.923384    60A     -0.900293
      61A     -0.868090    62A     -0.867300    63A     -0.853663
      64A     -0.847286    65A     -0.835939    66A     -0.829204
      67A     -0.824070    68A     -0.808551    69A     -0.779834
      70A     -0.753003    71A     -0.738919    72A     -0.731054
      73A     -0.717436    74A     -0.711879    75A     -0.704588
      76A     -0.680735    77A     -0.675811    78A     -0.666374
      79A     -0.661610    80A     -0.655680    81A     -0.651285
      82A     -0.644733    83A     -0.638642    84A     -0.635969
      85A     -0.623574    86A     -0.616069    87A     -0.611685
      88A     -0.608020    89A     -0.606557    90A     -0.601357
      91A     -0.599888    92A     -0.593934    93A     -0.589942
      94A     -0.587594    95A     -0.582667    96A     -0.581228
      97A     -0.579151    98A     -0.576928    99A     -0.567343
     100A     -0.551909   101A     -0.546279   102A     -0.539586
     103A     -0.534196   104A     -0.531536   105A     -0.528080
     106A     -0.522385   107A     -0.511884   108A     -0.511145
     109A     -0.507657   110A     -0.505012   111A     -0.502877
     112A     -0.500020   113A     -0.489163   114A     -0.473528
     115A     -0.454749   116A     -0.449000   117A     -0.438361
     118A     -0.435924   119A     -0.429838   120A     -0.422922
     121A     -0.414179   122A     -0.413988   123A     -0.397508
     124A     -0.385010   125A     -0.377053   126A     -0.351196
     127A     -0.347618   128A     -0.341075   129A     -0.317267
     130A     -0.314835   131A     -0.288416

  @DF-RHF Final Energy: -1572.35272008457946

   => Energetics <=

    Nuclear Repulsion Energy =           3669.8137699627636721
    One-Electron Energy =               -9437.8502083707571728
    Two-Electron Energy =                4195.6837183234138138
    Total Energy =                      -1572.3527200845792322

  Dipole Moment: [D]
     X:    -0.1003      Y:     6.6793      Z:     0.6230     Total:     6.7090

  Basis Set: (6-311++G** AUX)
    Blend: AUG-CC-PVTZ-RI
	 Reference Energy          =   -1572.3527200845794596 [Eh]
	 Singles Energy            =      -0.0000000000000000 [Eh]
	 Same-Spin Energy          =      -1.4694712385137119 [Eh]
	 Opposite-Spin Energy      =      -4.0452768665226353 [Eh]
	 Correlation Energy        =      -5.5147481050363467 [Eh]
	 Total Energy              =   -1577.8674681896159200 [Eh]

	 ================> DF-SCS-MP2 Energies <==================
	-----------------------------------------------------------
	 SCS Same-Spin Scale       =       0.3333333333333333 [-]
	 SCS Opposite-Spin Scale   =       1.2000000000000000 [-]
	 SCS Same-Spin Energy      =      -0.4898237461712373 [Eh]
	 SCS Opposite-Spin Energy  =      -4.8543322398271620 [Eh]
	 SCS Correlation Energy    =      -5.3441559859983991 [Eh]
	 SCS Total Energy          =   -1577.6968760705779005 [Eh]
	-----------------------------------------------------------

*** Psi4 exiting successfully. Buy a developer a beer!
