                               Psi4 1.3.2 release

  ==> Input File <==

--------------------------------------------------------------------------
molecule {
0 1
 C   -9.630691    1.827712   -1.438655
 C   -8.778868    1.880409   -0.327492
 C   -7.528306    1.229608   -0.363107
 C   -7.214600    0.568335   -1.574540
 N   -8.013482    0.511744   -2.648006
 C   -9.201271    1.128511   -2.571288
 C   -6.552970    1.241041    0.788099
 C   -6.746997    1.956146    1.981406
 C   -5.708401    1.878499    2.911661
 N   -4.596065    1.175900    2.731666
 C   -4.499567    0.496392    1.566998
 N   -5.430619    0.510908    0.611615
 N   -3.318821   -0.225093    1.471489
 C   -2.618744   -1.037200    0.503613
 C   -3.259192   -1.861831   -0.472465
 C   -2.428301   -2.573574   -1.356805
 C   -1.032077   -2.529202   -1.334978
 C   -0.413751   -1.737634   -0.364081
 C   -1.212825   -1.012856    0.537533
 N    1.003567   -1.590534   -0.193194
 C    2.056218   -2.136513   -0.892975
 C    3.468796   -1.836297   -0.427286
 C    3.809604   -1.561168    0.907455
 C    5.134626   -1.295006    1.260588
 C    6.167758   -1.313337    0.304854
 C    5.818083   -1.622046   -1.023314
 C    4.495984   -1.890190   -1.384964
 C    7.613689   -0.998695    0.692186
 N    8.080555    0.398477    0.646118
 C    7.593234    1.349314    1.671448
 C    6.366815    2.194952    1.240692
 N    6.527064    2.900980   -0.051296
 C    7.250636    4.176599   -0.017852
 C    6.962685    1.921097   -1.073014
 C    8.193649    1.068659   -0.669654
 O    1.888853   -2.839799   -1.876765
 C   -4.739878   -2.176669   -0.585909
 H  -10.601002    2.315277   -1.429178
 H   -9.120289    2.422836    0.550549
 H   -6.255020    0.077699   -1.682538
 H   -9.828002    1.063639   -3.459218
 H   -7.616837    2.565346    2.193029
 H   -5.773687    2.418217    3.856136
 H   -2.707270    0.008300    2.241216
 H   -2.880619   -3.230270   -2.100328
 H   -0.439649   -3.101224   -2.038235
 H   -0.745063   -0.386318    1.285158
 H    1.266562   -0.912899    0.507892
 H    3.035944   -1.561355    1.671119
 H    5.364100   -1.071027    2.302338
 H    6.586311   -1.654736   -1.795686
 H    4.237141   -2.133447   -2.412465
 H    7.786835   -1.361301    1.715873
 H    8.279630   -1.579044    0.036742
 H    7.442916    0.859159    2.597030
 H    8.753437    2.396108    1.905707
 H    6.105073    3.161068    2.266309
 H    5.286801    1.392382    1.132149
 H    8.297123    4.029275    0.271905
 H    6.778583    4.859739    0.697468
 H    7.221456    4.652951   -1.004307
 H    7.267457    2.611326   -2.274384
 H    5.875252    1.062245   -1.320789
 H    9.387426    2.100560   -0.553221
 H    8.469816    0.372669   -1.424662
 H   -5.189126   -1.681005   -1.454485
 H   -5.315822   -1.899452    0.302606
 H   -4.914033   -3.254093   -0.718469
}
memory 20GB
set_num_threads(6)
psi4_io.set_default_path("/scratch/bdw2292")
set freeze_core True
E, wfn = energy('mp2/6-311++G**',return_wfn=True)
oeprop(wfn,"WIBERG_LOWDIN_INDICES")
clean()
--------------------------------------------------------------------------

    Molecular point group: c1

    Geometry (in Angstrom), charge = 0, multiplicity = 1:

       Center              X                  Y                   Z               Mass
    ------------   -----------------  -----------------  -----------------  -----------------
         C           -9.461459514098     1.850378755554    -1.417741833126    12.000000000000
         C           -8.609636514098     1.903075755554    -0.306578833126    12.000000000000
         C           -7.359074514098     1.252274755554    -0.342193833126    12.000000000000
         C           -7.045368514098     0.591001755554    -1.553626833126    12.000000000000
         N           -7.844250514098     0.534410755554    -2.627092833126    14.003074004430
         C           -9.032039514098     1.151177755554    -2.550374833126    12.000000000000
         C           -6.383738514098     1.263707755554     0.809012166874    12.000000000000
         C           -6.577765514098     1.978812755554     2.002319166874    12.000000000000
         C           -5.539169514098     1.901165755554     2.932574166874    12.000000000000
         N           -4.426833514098     1.198566755554     2.752579166874    14.003074004430
         C           -4.330335514098     0.519058755554     1.587911166874    12.000000000000
         N           -5.261387514098     0.533574755554     0.632528166874    14.003074004430
         N           -3.149589514098    -0.202426244446     1.492402166874    14.003074004430
         C           -2.449512514098    -1.014533244446     0.524526166874    12.000000000000
         C           -3.089960514098    -1.839164244446    -0.451551833126    12.000000000000
         C           -2.259069514098    -2.550907244446    -1.335891833126    12.000000000000
         C           -0.862845514098    -2.506535244446    -1.314064833126    12.000000000000
         C           -0.244519514098    -1.714967244446    -0.343167833126    12.000000000000
         C           -1.043593514098    -0.990189244446     0.558446166874    12.000000000000
         N            1.172798485902    -1.567867244446    -0.172280833126    14.003074004430
         C            2.225449485902    -2.113846244446    -0.872061833126    12.000000000000
         C            3.638027485902    -1.813630244446    -0.406372833126    12.000000000000
         C            3.978835485902    -1.538501244446     0.928368166874    12.000000000000
         C            5.303857485902    -1.272339244446     1.281501166874    12.000000000000
         C            6.336989485902    -1.290670244446     0.325767166874    12.000000000000
         C            5.987314485902    -1.599379244446    -1.002400833126    12.000000000000
         C            4.665215485902    -1.867523244446    -1.364050833126    12.000000000000
         C            7.782920485902    -0.976028244446     0.713099166874    12.000000000000
         N            8.249786485902     0.421143755554     0.667031166874    14.003074004430
         C            7.762465485902     1.371980755554     1.692361166874    12.000000000000
         C            6.536046485902     2.217618755554     1.261605166874    12.000000000000
         N            6.696295485902     2.923646755554    -0.030382833126    14.003074004430
         C            7.419867485902     4.199265755554     0.003061166874    12.000000000000
         C            7.131916485902     1.943763755554    -1.052100833126    12.000000000000
         C            8.362880485902     1.091325755554    -0.648740833126    12.000000000000
         O            2.058084485902    -2.817132244446    -1.855851833126    15.994914619570
         C           -4.570646514098    -2.154002244446    -0.564995833126    12.000000000000
         H          -10.431770514098     2.337943755554    -1.408264833126     1.007825032230
         H           -8.951057514098     2.445502755554     0.571462166874     1.007825032230
         H           -6.085788514098     0.100365755554    -1.661624833126     1.007825032230
         H           -9.658770514098     1.086305755554    -3.438304833126     1.007825032230
         H           -7.447605514098     2.588012755554     2.213942166874     1.007825032230
         H           -5.604455514098     2.440883755554     3.877049166874     1.007825032230
         H           -2.538038514098     0.030966755554     2.262129166874     1.007825032230
         H           -2.711387514098    -3.207603244446    -2.079414833126     1.007825032230
         H           -0.270417514098    -3.078557244446    -2.017321833126     1.007825032230
         H           -0.575831514098    -0.363651244446     1.306071166874     1.007825032230
         H            1.435793485902    -0.890232244446     0.528805166874     1.007825032230
         H            3.205175485902    -1.538688244446     1.692032166874     1.007825032230
         H            5.533331485902    -1.048360244446     2.323251166874     1.007825032230
         H            6.755542485902    -1.632069244446    -1.774772833126     1.007825032230
         H            4.406372485902    -2.110780244446    -2.391551833126     1.007825032230
         H            7.956066485902    -1.338634244446     1.736786166874     1.007825032230
         H            8.448861485902    -1.556377244446     0.057655166874     1.007825032230
         H            7.612147485902     0.881825755554     2.617943166874     1.007825032230
         H            8.922668485902     2.418774755554     1.926620166874     1.007825032230
         H            6.274304485902     3.183734755554     2.287222166874     1.007825032230
         H            5.456032485902     1.415048755554     1.153062166874     1.007825032230
         H            8.466354485902     4.051941755554     0.292818166874     1.007825032230
         H            6.947814485902     4.882405755554     0.718381166874     1.007825032230
         H            7.390687485902     4.675617755554    -0.983393833126     1.007825032230
         H            7.436688485902     2.633992755554    -2.253470833126     1.007825032230
         H            6.044483485902     1.084911755554    -1.299875833126     1.007825032230
         H            9.556657485902     2.123226755554    -0.532307833126     1.007825032230
         H            8.639047485902     0.395335755554    -1.403748833126     1.007825032230
         H           -5.019894514098    -1.658338244446    -1.433571833126     1.007825032230
         H           -5.146590514098    -1.876785244446     0.323519166874     1.007825032230
         H           -4.744801514098    -3.231426244446    -0.697555833126     1.007825032230

  Charge       = 0
  Multiplicity = 1
  Basis Set: 6-311++G**
    Blend: 6-311++G**
  Basis Set: (6-311++G** AUX)
    Blend: AUG-CC-PVTZ-JKFIT

    Orbital Energies [Eh]
    ---------------------

    Doubly Occupied:

       1A    -20.528230     2A    -15.610666     3A    -15.600669
       4A    -15.579057     5A    -15.574361     6A    -15.567855
       7A    -15.565138     8A    -15.562580     9A    -11.373617
      10A    -11.372838    11A    -11.329087    12A    -11.324759
      13A    -11.322854    14A    -11.311173    15A    -11.310828
      16A    -11.307719    17A    -11.305503    18A    -11.299958
      19A    -11.290710    20A    -11.288020    21A    -11.287820
      22A    -11.280365    23A    -11.270272    24A    -11.268625
      25A    -11.267780    26A    -11.267421    27A    -11.259103
      28A    -11.258446    29A    -11.255778    30A    -11.255427
      31A    -11.247267    32A    -11.246020    33A    -11.245624
      34A    -11.244589    35A    -11.238850    36A    -11.227938
      37A    -11.217093    38A     -1.395008    39A     -1.339548
      40A     -1.267135    41A     -1.256408    42A     -1.253155
      43A     -1.239689    44A     -1.206965    45A     -1.202961
      46A     -1.172409    47A     -1.141099    48A     -1.108359
      49A     -1.071078    50A     -1.067201    51A     -1.041261
      52A     -1.039643    53A     -1.034635    54A     -1.008337
      55A     -1.003094    56A     -0.983668    57A     -0.944278
      58A     -0.929979    59A     -0.918979    60A     -0.894894
      61A     -0.872467    62A     -0.863321    63A     -0.852296
      64A     -0.847352    65A     -0.840355    66A     -0.836529
      67A     -0.835734    68A     -0.809893    69A     -0.781454
      70A     -0.753193    71A     -0.741441    72A     -0.731170
      73A     -0.717062    74A     -0.709059    75A     -0.691767
      76A     -0.687655    77A     -0.678224    78A     -0.667271
      79A     -0.661285    80A     -0.657800    81A     -0.652633
      82A     -0.648406    83A     -0.640634    84A     -0.634911
      85A     -0.626217    86A     -0.624000    87A     -0.612243
      88A     -0.610036    89A     -0.606148    90A     -0.603773
      91A     -0.600323    92A     -0.597634    93A     -0.594266
      94A     -0.586152    95A     -0.584210    96A     -0.583198
      97A     -0.581189    98A     -0.568048    99A     -0.563587
     100A     -0.550730   101A     -0.545570   102A     -0.541234
     103A     -0.535101   104A     -0.533980   105A     -0.529123
     106A     -0.524102   107A     -0.512924   108A     -0.509242
     109A     -0.507131   110A     -0.506266   111A     -0.502792
     112A     -0.501093   113A     -0.487098   114A     -0.482488
     115A     -0.446735   116A     -0.445277   117A     -0.436867
     118A     -0.431374   119A     -0.429852   120A     -0.425785
     121A     -0.406799   122A     -0.396495   123A     -0.391776
     124A     -0.387058   125A     -0.369695   126A     -0.356312
     127A     -0.351705   128A     -0.339201   129A     -0.318575
     130A     -0.315426   131A     -0.292114

  @DF-RHF Final Energy: -1572.27706246582420

   => Energetics <=

    Nuclear Repulsion Energy =           3496.8843897198012201
    One-Electron Energy =               -9091.6295517642938648
    Two-Electron Energy =                4022.4680995786684434
    Total Energy =                      -1572.2770624658242014

  Dipole Moment: [D]
     X:    -1.6635      Y:     2.8339      Z:     4.2025     Total:     5.3347

  Basis Set: (6-311++G** AUX)
    Blend: AUG-CC-PVTZ-RI
	 Reference Energy          =   -1572.2770624658242014 [Eh]
	 Singles Energy            =      -0.0000000000000000 [Eh]
	 Same-Spin Energy          =      -1.4704572404513714 [Eh]
	 Opposite-Spin Energy      =      -4.0508273261612526 [Eh]
	 Correlation Energy        =      -5.5212845666126240 [Eh]
	 Total Energy              =   -1577.7983470324368227 [Eh]

	 ================> DF-SCS-MP2 Energies <==================
	-----------------------------------------------------------
	 SCS Same-Spin Scale       =       0.3333333333333333 [-]
	 SCS Opposite-Spin Scale   =       1.2000000000000000 [-]
	 SCS Same-Spin Energy      =      -0.4901524134837905 [Eh]
	 SCS Opposite-Spin Energy  =      -4.8609927913935032 [Eh]
	 SCS Correlation Energy    =      -5.3511452048772936 [Eh]
	 SCS Total Energy          =   -1577.6282076707013857 [Eh]
	-----------------------------------------------------------

*** Psi4 exiting successfully. Buy a developer a beer!
