 Gaussian 09, Revision A.02,
 Gaussian 09:  EM64L-G09RevA.02 11-Jun-2009

 --------------------------------------------------
 #P opt=(,maxcycle=400) wB97XD/6-31G* MaxDisk=100GB
 --------------------------------------------------

 -----------------------------------------------------------------
 MOLECULE0 Rotatable Bond Optimization on g2-node38.bme.utexas.edu
 -----------------------------------------------------------------
 Symbolic Z-matrix:
 Charge =  0 Multiplicity = 1

 SCF Done:  E(RwB97XD) =  -1581.46568361     A.U. after   16 cycles
 SCF Done:  E(RwB97XD) =  -1581.54161569     A.U. after   13 cycles
 SCF Done:  E(RwB97XD) =  -1581.64931545     A.U. after   14 cycles
 SCF Done:  E(RwB97XD) =  -1581.68373257     A.U. after   14 cycles
 SCF Done:  E(RwB97XD) =  -1581.71843535     A.U. after   17 cycles
 SCF Done:  E(RwB97XD) =  -1581.72527864     A.U. after   16 cycles
 SCF Done:  E(RwB97XD) =  -1581.73932152     A.U. after   15 cycles
 SCF Done:  E(RwB97XD) =  -1581.74834354     A.U. after   14 cycles
 SCF Done:  E(RwB97XD) =  -1581.75027976     A.U. after   16 cycles
 SCF Done:  E(RwB97XD) =  -1581.75397193     A.U. after   14 cycles
 SCF Done:  E(RwB97XD) =  -1581.76884444     A.U. after   12 cycles
 SCF Done:  E(RwB97XD) =  -1581.76885146     A.U. after   10 cycles
 SCF Done:  E(RwB97XD) =  -1581.76885240     A.U. after    9 cycles
 SCF Done:  E(RwB97XD) =  -1581.76885287     A.U. after    8 cycles
 SCF Done:  E(RwB97XD) =  -1581.76885336     A.U. after    8 cycles
 SCF Done:  E(RwB97XD) =  -1581.76885330     A.U. after    7 cycles
 SCF Done:  E(RwB97XD) =  -1581.76885347     A.U. after    7 cycles
 SCF Done:  E(RwB97XD) =  -1581.76885342     A.U. after    7 cycles
 SCF Done:  E(RwB97XD) =  -1581.76885344     A.U. after    6 cycles
 SCF Done:  E(RwB97XD) =  -1581.76885346     A.U. after    6 cycles
 Optimization completed.
    -- Stationary point found.

                         Standard orientation:
 ---------------------------------------------------------------------
 Center     Atomic      Atomic             Coordinates (Angstroms)
 Number     Number       Type             X           Y           Z
 ---------------------------------------------------------------------
      1          6           0       -1.637660    4.878170   -0.351957
      2          6           0       -2.940745    4.398333   -0.304334
      3          6           0       -3.162177    3.081192    0.094076
      4          6           0       -2.040897    2.313859    0.436995
      5          7           0       -0.786081    2.756841    0.386730
      6          6           0       -0.598758    4.020144   -0.007176
      7          6           0       -4.509947    2.461048    0.129659
      8          6           0       -5.695439    3.181239    0.247952
      9          6           0       -6.870930    2.431318    0.237589
     10          7           0       -6.902178    1.109402    0.138912
     11          6           0       -5.697616    0.509129    0.051518
     12          7           0       -4.518661    1.129372    0.031867
     13          7           0       -5.742938   -0.855390   -0.024079
     14          6           0       -4.699640   -1.800499   -0.009920
     15          6           0       -5.021297   -3.135786    0.306111
     16          6           0       -3.981716   -4.059981    0.338702
     17          6           0       -2.652450   -3.725326    0.091757
     18          6           0       -2.358681   -2.400766   -0.222871
     19          6           0       -3.383185   -1.456089   -0.297635
     20          7           0       -1.064477   -1.905126   -0.462458
     21          6           0        0.146364   -2.523489   -0.283885
     22          6           0        1.331005   -1.610572   -0.430540
     23          6           0        1.282165   -0.238392   -0.173142
     24          6           0        2.425404    0.541251   -0.313542
     25          6           0        3.631103   -0.025804   -0.719850
     26          6           0        3.680346   -1.402318   -0.959503
     27          6           0        2.546971   -2.186596   -0.807066
     28          6           0        4.862013    0.830386   -0.927431
     29          7           0        6.083122    0.171223   -0.502790
     30          6           0        7.274802    0.844771   -1.002193
     31          6           0        8.521750    0.046899   -0.609437
     32          7           0        8.640334   -0.185887    0.824239
     33          6           0        9.073263    0.981937    1.571360
     34          6           0        7.404326   -0.775766    1.325620
     35          6           0        6.148497    0.012933    0.946780
     36          8           0        0.273603   -3.712843   -0.040311
     37          6           0       -6.438019   -3.549878    0.613642
     38          1           0       -1.427553    5.895242   -0.665020
     39          1           0       -3.769308    5.035167   -0.600802
     40          1           0       -2.182892    1.290371    0.773821
     41          1           0        0.433601    4.359489   -0.050406
     42          1           0       -5.720080    4.258011    0.360658
     43          1           0       -7.837820    2.923776    0.319276
     44          1           0       -6.684802   -1.211589    0.039988
     45          1           0       -4.216602   -5.093433    0.580839
     46          1           0       -1.864897   -4.463157    0.146627
     47          1           0       -3.153236   -0.431656   -0.549989
     48          1           0       -1.031241   -0.939844   -0.753888
     49          1           0        0.378139    0.249622    0.182454
     50          1           0        2.367404    1.603767   -0.091328
     51          1           0        4.627408   -1.847605   -1.248712
     52          1           0        2.583393   -3.258011   -0.975386
     53          1           0        4.960456    1.046145   -1.999737
     54          1           0        4.721365    1.807560   -0.423817
     55          1           0        7.211324    0.908753   -2.094852
     56          1           0        7.345789    1.882293   -0.617984
     57          1           0        9.423519    0.557381   -0.965004
     58          1           0        8.470579   -0.929990   -1.106742
     59          1           0        8.378017    1.839357    1.548109
     60          1           0       10.036001    1.323459    1.176028
     61          1           0        9.221550    0.702660    2.619935
     62          1           0        7.473186   -0.876221    2.414145
     63          1           0        7.314246   -1.783881    0.901407
     64          1           0        6.140905    0.998920    1.453395
     65          1           0        5.259934   -0.529955    1.284273
     66          1           0       -7.114539   -3.383666   -0.235901
     67          1           0       -6.846301   -3.005710    1.475037
     68          1           0       -6.483319   -4.615656    0.851444
 ---------------------------------------------------------------------

 The electronic state is 1-A.
 Alpha  occ. eigenvalues --  -19.23149 -14.49163 -14.48274 -14.46626 -14.46014
 Alpha  occ. eigenvalues --  -14.45670 -14.44209 -14.43407 -10.41670 -10.39914
 Alpha  occ. eigenvalues --  -10.37529 -10.36270 -10.35198 -10.34937 -10.34540
 Alpha  occ. eigenvalues --  -10.34056 -10.33964 -10.33513 -10.32768 -10.32360
 Alpha  occ. eigenvalues --  -10.31786 -10.31501 -10.31244 -10.31049 -10.31001
 Alpha  occ. eigenvalues --  -10.30791 -10.30746 -10.30564 -10.30348 -10.30269
 Alpha  occ. eigenvalues --  -10.29965 -10.29801 -10.29730 -10.29434 -10.29338
 Alpha  occ. eigenvalues --  -10.28767 -10.28208  -1.13293  -1.12226  -1.06215
 Alpha  occ. eigenvalues --   -1.04534  -1.04465  -1.03413  -1.00644  -1.00241
 Alpha  occ. eigenvalues --   -0.95715  -0.94567  -0.93009  -0.89678  -0.87991
 Alpha  occ. eigenvalues --   -0.87299  -0.86251  -0.85527  -0.84143  -0.83663
 Alpha  occ. eigenvalues --   -0.82023  -0.79428  -0.78178  -0.77428  -0.76199
 Alpha  occ. eigenvalues --   -0.73770  -0.73430  -0.72821  -0.72528  -0.71073
 Alpha  occ. eigenvalues --   -0.69948  -0.69229  -0.67700  -0.66098  -0.65048
 Alpha  occ. eigenvalues --   -0.63870  -0.63362  -0.62074  -0.61694  -0.60029
 Alpha  occ. eigenvalues --   -0.58727  -0.58564  -0.57570  -0.56099  -0.55834
 Alpha  occ. eigenvalues --   -0.55573  -0.55528  -0.55333  -0.55074  -0.54497
 Alpha  occ. eigenvalues --   -0.53876  -0.53260  -0.53003  -0.52290  -0.52093
 Alpha  occ. eigenvalues --   -0.51582  -0.51447  -0.51106  -0.50874  -0.50603
 Alpha  occ. eigenvalues --   -0.50345  -0.49994  -0.49615  -0.49510  -0.48201
 Alpha  occ. eigenvalues --   -0.47938  -0.47147  -0.46694  -0.46564  -0.46116
 Alpha  occ. eigenvalues --   -0.45522  -0.45087  -0.44019  -0.43816  -0.43271
 Alpha  occ. eigenvalues --   -0.42908  -0.42531  -0.42237  -0.42141  -0.41550
 Alpha  occ. eigenvalues --   -0.41352  -0.40539  -0.39870  -0.38107  -0.37486
 Alpha  occ. eigenvalues --   -0.35684  -0.35188  -0.33911  -0.33288  -0.33150
 Alpha  occ. eigenvalues --   -0.32394  -0.31446  -0.30228  -0.29040  -0.27347
 Alpha  occ. eigenvalues --   -0.26968
 Alpha virt. eigenvalues --   -0.00241   0.03009   0.03661   0.04639   0.07063
 Alpha virt. eigenvalues --    0.07396   0.08528   0.10537   0.14920   0.15175
 Alpha virt. eigenvalues --    0.16159   0.16323   0.17432   0.18385   0.18622

 Mulliken atomic charges:
              1
     1  C   -0.198090
     2  C   -0.155288
     3  C    0.034815
     4  C    0.007443
     5  N   -0.435001
     6  C    0.031218
     7  C    0.296405
     8  C   -0.255104
     9  C    0.048809
    10  N   -0.493090
    11  C    0.711529
    12  N   -0.568080
    13  N   -0.799013
    14  C    0.289535
    15  C    0.119829
    16  C   -0.240105
    17  C   -0.190404
    18  C    0.355843
    19  C   -0.267076
    20  N   -0.767463
    21  C    0.598951
    22  C    0.017682
    23  C   -0.212771
    24  C   -0.226260
    25  C    0.113926
    26  C   -0.198588
    27  C   -0.182859
    28  C   -0.203227
    29  N   -0.417117
    30  C   -0.161841
    31  C   -0.181145
    32  N   -0.387111
    33  C   -0.350028
    34  C   -0.182612
    35  C   -0.171277
    36  O   -0.517335
    37  C   -0.608162
    38  H    0.185842
    39  H    0.185814
    40  H    0.200789
    41  H    0.181712
    42  H    0.180293
    43  H    0.189057
    44  H    0.368999
    45  H    0.160455
    46  H    0.215934
    47  H    0.195515
    48  H    0.359282
    49  H    0.185694
    50  H    0.166923
    51  H    0.181614
    52  H    0.196513
    53  H    0.176254
    54  H    0.134106
    55  H    0.160424
    56  H    0.126849
    57  H    0.158372
    58  H    0.169877
    59  H    0.136417
    60  H    0.167592
    61  H    0.169595
    62  H    0.161023
    63  H    0.170827
    64  H    0.126600
    65  H    0.179290
    66  H    0.177395
    67  H    0.183525
    68  H    0.190481
 Sum of Mulliken atomic charges =   0.00000

 Dipole moment (field-independent basis, Debye):
    X=             -2.3878    Y=              7.1729    Z=             -0.7499  Tot=              7.5970
 Quadrupole moment (field-independent basis, Debye-Ang):
   XX=           -191.6008   YY=           -196.7591   ZZ=           -216.9086
   XY=              2.9262   XZ=             -4.8844   YZ=             -3.3661

 Normal termination of Gaussian 09 at Tue Mar 10 16:55:34 2020.
