                               Psi4 1.3.2 release

  ==> Input File <==

--------------------------------------------------------------------------
molecule {
0 1
 C   -1.409074    5.013644   -0.393054
 C   -2.721632    4.524821   -0.347642
 C   -2.952111    3.151945   -0.134236
 C   -1.796954    2.353532    0.054878
 N   -0.535472    2.802216    0.019434
 C   -0.354221    4.112393   -0.208525
 C   -4.324510    2.528865   -0.086107
 C   -5.539241    3.233860   -0.068382
 C   -6.697262    2.451146    0.018619
 N   -6.703014    1.120410    0.066995
 C   -5.493671    0.526055    0.022042
 N   -4.336145    1.184237   -0.051476
 N   -5.506056   -0.856984    0.054398
 C   -4.463179   -1.851097    0.123480
 C   -4.781944   -3.181315    0.532862
 C   -3.724032   -4.102854    0.612000
 C   -2.392022   -3.792744    0.312748
 C   -2.095482   -2.495329   -0.118223
 C   -3.134284   -1.555527   -0.206808
 N   -0.796622   -2.006752   -0.474493
 C    0.455592   -2.564593   -0.354778
 C    1.640630   -1.669562   -0.667036
 C    2.753992   -2.248533   -1.298102
 C    3.852866   -1.463914   -1.656698
 C    3.891150   -0.082933   -1.383638
 C    2.773588    0.481376   -0.739665
 C    1.671723   -0.295210   -0.374062
 C    5.106517    0.769686   -1.753354
 N    6.209093    0.927132   -0.790437
 C    7.076914   -0.236496   -0.498579
 C    6.654817   -1.064737    0.742788
 N    6.476843   -0.258258    1.974419
 C    7.692969    0.064042    2.729911
 C    5.561657    0.870370    1.677949
 C    5.976448    1.712525    0.443157
 O    0.628837   -3.729781   -0.033237
 C   -6.187879   -3.622452    0.903296
 H   -1.207025    6.066015   -0.568394
 H   -3.542657    5.220672   -0.502737
 H   -1.891836    1.294300    0.273137
 H    0.683031    4.443260   -0.234005
 H   -5.622702    4.313626   -0.089605
 H   -7.690484    2.897982    0.055765
 H   -6.457113   -1.179523    0.150768
 H   -3.934216   -5.122815    0.931659
 H   -1.602742   -4.528815    0.401734
 H   -2.910382   -0.561061   -0.554819
 H   -0.797558   -1.065667   -0.842474
 H    2.740841   -3.315034   -1.509152
 H    4.700050   -1.941361   -2.148551
 H    2.759111    1.545806   -0.506249
 H    0.827755    0.170819    0.129828
 H    5.545631    0.358826   -2.673500
 H    4.752537    1.781489   -1.997080
 H    7.171228   -0.939537   -1.466655
 H    8.443777    0.297643   -0.232987
 H    7.514057   -1.991113    0.970238
 H    5.431039   -1.691869    0.490436
 H    8.353365    0.718570    2.149990
 H    8.236772   -0.853911    2.981088
 H    7.432560    0.566437    3.668719
 H    5.473778    1.617824    2.712940
 H    4.305915    0.323528    1.462660
 H    7.253885    2.381785    0.774698
 H    5.194954    2.571730    0.241202
 H   -6.895286   -3.528284    0.066917
 H   -6.582598   -3.023733    1.728927
 H   -6.231533   -4.665656    1.226644
}
memory 20GB
set_num_threads(6)
psi4_io.set_default_path("/scratch/bdw2292")
set freeze_core True
E, wfn = energy('mp2/6-311++G**',return_wfn=True)
oeprop(wfn,"WIBERG_LOWDIN_INDICES")
clean()
--------------------------------------------------------------------------

    Molecular point group: c1

    Geometry (in Angstrom), charge = 0, multiplicity = 1:

       Center              X                  Y                   Z               Mass
    ------------   -----------------  -----------------  -----------------  -----------------
         C           -1.294809341677     5.009382841019    -0.377685431374    12.000000000000
         C           -2.607367341677     4.520559841019    -0.332273431374    12.000000000000
         C           -2.837846341677     3.147683841019    -0.118867431374    12.000000000000
         C           -1.682689341677     2.349270841019     0.070246568626    12.000000000000
         N           -0.421207341677     2.797954841019     0.034802568626    14.003074004430
         C           -0.239956341677     4.108131841019    -0.193156431374    12.000000000000
         C           -4.210245341677     2.524603841019    -0.070738431374    12.000000000000
         C           -5.424976341677     3.229598841019    -0.053013431374    12.000000000000
         C           -6.582997341677     2.446884841019     0.033987568626    12.000000000000
         N           -6.588749341677     1.116148841019     0.082363568626    14.003074004430
         C           -5.379406341677     0.521793841019     0.037410568626    12.000000000000
         N           -4.221880341677     1.179975841019    -0.036107431374    14.003074004430
         N           -5.391791341677    -0.861245158981     0.069766568626    14.003074004430
         C           -4.348914341677    -1.855358158981     0.138848568626    12.000000000000
         C           -4.667679341677    -3.185576158981     0.548230568626    12.000000000000
         C           -3.609767341677    -4.107115158981     0.627368568626    12.000000000000
         C           -2.277757341677    -3.797005158981     0.328116568626    12.000000000000
         C           -1.981217341677    -2.499590158981    -0.102854431374    12.000000000000
         C           -3.020019341677    -1.559788158981    -0.191439431374    12.000000000000
         N           -0.682357341677    -2.011013158981    -0.459124431374    14.003074004430
         C            0.569856658323    -2.568854158981    -0.339409431374    12.000000000000
         C            1.754894658323    -1.673823158981    -0.651667431374    12.000000000000
         C            2.868256658323    -2.252794158981    -1.282733431374    12.000000000000
         C            3.967130658323    -1.468175158981    -1.641329431374    12.000000000000
         C            4.005414658323    -0.087194158981    -1.368269431374    12.000000000000
         C            2.887852658323     0.477114841019    -0.724296431374    12.000000000000
         C            1.785987658323    -0.299471158981    -0.358693431374    12.000000000000
         C            5.220781658323     0.765424841019    -1.737985431374    12.000000000000
         N            6.323357658323     0.922870841019    -0.775068431374    14.003074004430
         C            7.191178658323    -0.240757158981    -0.483210431374    12.000000000000
         C            6.769081658323    -1.068998158981     0.758156568626    12.000000000000
         N            6.591107658323    -0.262519158981     1.989787568626    14.003074004430
         C            7.807233658323     0.059780841019     2.745279568626    12.000000000000
         C            5.675921658323     0.866108841019     1.693317568626    12.000000000000
         C            6.090712658323     1.708263841019     0.458525568626    12.000000000000
         O            0.743101658323    -3.734042158981    -0.017868431374    15.994914619570
         C           -6.073614341677    -3.626713158981     0.918664568626    12.000000000000
         H           -1.092760341677     6.061753841019    -0.553025431374     1.007825032230
         H           -3.428392341677     5.216410841019    -0.487368431374     1.007825032230
         H           -1.777571341677     1.290038841019     0.288505568626     1.007825032230
         H            0.797295658323     4.438998841019    -0.218636431374     1.007825032230
         H           -5.508437341677     4.309364841019    -0.074236431374     1.007825032230
         H           -7.576219341677     2.893720841019     0.071133568626     1.007825032230
         H           -6.342848341677    -1.183784158981     0.166136568626     1.007825032230
         H           -3.819951341677    -5.127076158981     0.947027568626     1.007825032230
         H           -1.488477341677    -4.533076158981     0.417102568626     1.007825032230
         H           -2.796117341677    -0.565322158981    -0.539450431374     1.007825032230
         H           -0.683293341677    -1.069928158981    -0.827105431374     1.007825032230
         H            2.855105658323    -3.319295158981    -1.493783431374     1.007825032230
         H            4.814314658323    -1.945622158981    -2.133182431374     1.007825032230
         H            2.873375658323     1.541544841019    -0.490880431374     1.007825032230
         H            0.942019658323     0.166557841019     0.145196568626     1.007825032230
         H            5.659895658323     0.354564841019    -2.658131431374     1.007825032230
         H            4.866801658323     1.777227841019    -1.981711431374     1.007825032230
         H            7.285492658323    -0.943798158981    -1.451286431374     1.007825032230
         H            8.558041658323     0.293381841019    -0.217618431374     1.007825032230
         H            7.628321658323    -1.995374158981     0.985606568626     1.007825032230
         H            5.545303658323    -1.696130158981     0.505804568626     1.007825032230
         H            8.467629658323     0.714308841019     2.165358568626     1.007825032230
         H            8.351036658323    -0.858172158981     2.996456568626     1.007825032230
         H            7.546824658323     0.562175841019     3.684087568626     1.007825032230
         H            5.588042658323     1.613562841019     2.728308568626     1.007825032230
         H            4.420179658323     0.319266841019     1.478028568626     1.007825032230
         H            7.368149658323     2.377523841019     0.790066568626     1.007825032230
         H            5.309218658323     2.567468841019     0.256570568626     1.007825032230
         H           -6.781021341677    -3.532545158981     0.082285568626     1.007825032230
         H           -6.468333341677    -3.027994158981     1.744295568626     1.007825032230
         H           -6.117268341677    -4.669917158981     1.242012568626     1.007825032230

  Charge       = 0
  Multiplicity = 1
  Basis Set: 6-311++G**
    Blend: 6-311++G**
  Basis Set: (6-311++G** AUX)
    Blend: AUG-CC-PVTZ-JKFIT

    Orbital Energies [Eh]
    ---------------------

    Doubly Occupied:

       1A    -20.521036     2A    -15.604114     3A    -15.601840
       4A    -15.587334     5A    -15.573809     6A    -15.568603
       7A    -15.567401     8A    -15.551777     9A    -11.374547
      10A    -11.364046    11A    -11.334687    12A    -11.314192
      13A    -11.310941    14A    -11.308487    15A    -11.302849
      16A    -11.301931    17A    -11.301796    18A    -11.301695
      19A    -11.300717    20A    -11.292817    21A    -11.289879
      22A    -11.280721    23A    -11.276631    24A    -11.266334
      25A    -11.256756    26A    -11.255654    27A    -11.252903
      28A    -11.252597    29A    -11.249094    30A    -11.247302
      31A    -11.245081    32A    -11.244740    33A    -11.243847
      34A    -11.239827    35A    -11.234018    36A    -11.231152
      37A    -11.225061    38A     -1.385998    39A     -1.345634
      40A     -1.278740    41A     -1.250979    42A     -1.242545
      43A     -1.241846    44A     -1.209963    45A     -1.196746
      46A     -1.160786    47A     -1.139853    48A     -1.116430
      49A     -1.075577    50A     -1.058984    51A     -1.048510
      52A     -1.037560    53A     -1.022705    54A     -1.007985
      55A     -0.988596    56A     -0.974656    57A     -0.946346
      58A     -0.926974    59A     -0.925875    60A     -0.901113
      61A     -0.873094    62A     -0.864633    63A     -0.858348
      64A     -0.840940    65A     -0.833685    66A     -0.824643
      67A     -0.823049    68A     -0.804098    69A     -0.778075
      70A     -0.754754    71A     -0.738685    72A     -0.730896
      73A     -0.722225    74A     -0.699814    75A     -0.692976
      76A     -0.682891    77A     -0.672087    78A     -0.666696
      79A     -0.657939    80A     -0.655385    81A     -0.652082
      82A     -0.640152    83A     -0.637048    84A     -0.629166
      85A     -0.622760    86A     -0.617280    87A     -0.612331
      88A     -0.606948    89A     -0.603002    90A     -0.602240
      91A     -0.598609    92A     -0.595554    93A     -0.591562
      94A     -0.587851    95A     -0.581788    96A     -0.580657
      97A     -0.578307    98A     -0.571425    99A     -0.563239
     100A     -0.561806   101A     -0.548186   102A     -0.544887
     103A     -0.528769   104A     -0.525305   105A     -0.521264
     106A     -0.520170   107A     -0.513498   108A     -0.508611
     109A     -0.505981   110A     -0.503809   111A     -0.502281
     112A     -0.492821   113A     -0.485109   114A     -0.480929
     115A     -0.455611   116A     -0.452016   117A     -0.443138
     118A     -0.433115   119A     -0.427130   120A     -0.424917
     121A     -0.414493   122A     -0.404741   123A     -0.400652
     124A     -0.379165   125A     -0.373938   126A     -0.346635
     127A     -0.344418   128A     -0.340541   129A     -0.315109
     130A     -0.310408   131A     -0.290389

  @DF-RHF Final Energy: -1572.36016123414993

   => Energetics <=

    Nuclear Repulsion Energy =           3693.2644915484047488
    One-Electron Energy =               -9485.0345674603158841
    Two-Electron Energy =                4219.4099146777607530
    Total Energy =                      -1572.3601612341499276

  Dipole Moment: [D]
     X:    -2.9612      Y:     6.5739      Z:    -1.3573     Total:     7.3367

  Basis Set: (6-311++G** AUX)
    Blend: AUG-CC-PVTZ-RI
	 Reference Energy          =   -1572.3601612341499276 [Eh]
	 Singles Energy            =      -0.0000000000000000 [Eh]
	 Same-Spin Energy          =      -1.4709128096172357 [Eh]
	 Opposite-Spin Energy      =      -4.0478896239112174 [Eh]
	 Correlation Energy        =      -5.5188024335284531 [Eh]
	 Total Energy              =   -1577.8789636676783630 [Eh]

	 ================> DF-SCS-MP2 Energies <==================
	-----------------------------------------------------------
	 SCS Same-Spin Scale       =       0.3333333333333333 [-]
	 SCS Opposite-Spin Scale   =       1.2000000000000000 [-]
	 SCS Same-Spin Energy      =      -0.4903042698724119 [Eh]
	 SCS Opposite-Spin Energy  =      -4.8574675486934611 [Eh]
	 SCS Correlation Energy    =      -5.3477718185658727 [Eh]
	 SCS Total Energy          =   -1577.7079330527158163 [Eh]
	-----------------------------------------------------------

*** Psi4 exiting successfully. Buy a developer a beer!
