 Gaussian 09, Revision A.02,
 Gaussian 09:  EM64L-G09RevA.02 11-Jun-2009

 --------------------------------------------------
 #P opt=(,maxcycle=400) wB97XD/6-31G* MaxDisk=100GB
 --------------------------------------------------

 --------------------------------------------------------------
 MOLECULE0 Rotatable Bond Optimization on node37.bme.utexas.edu
 --------------------------------------------------------------
 Symbolic Z-matrix:
 Charge =  0 Multiplicity = 1

 SCF Done:  E(RwB97XD) =  -1581.48866540     A.U. after   16 cycles
 SCF Done:  E(RwB97XD) =  -1581.54940147     A.U. after   14 cycles
 SCF Done:  E(RwB97XD) =  -1581.64896707     A.U. after   15 cycles
 SCF Done:  E(RwB97XD) =  -1581.70031486     A.U. after   15 cycles
 SCF Done:  E(RwB97XD) =  -1581.72469154     A.U. after   15 cycles
 SCF Done:  E(RwB97XD) =  -1581.73212132     A.U. after   15 cycles
 SCF Done:  E(RwB97XD) =  -1581.73586937     A.U. after   17 cycles
 SCF Done:  E(RwB97XD) =  -1581.74132181     A.U. after   15 cycles
 SCF Done:  E(RwB97XD) =  -1581.74786956     A.U. after   14 cycles
 SCF Done:  E(RwB97XD) =  -1581.75171769     A.U. after   17 cycles
 SCF Done:  E(RwB97XD) =  -1581.75387563     A.U. after   11 cycles
 SCF Done:  E(RwB97XD) =  -1581.75388204     A.U. after   12 cycles
 SCF Done:  E(RwB97XD) =  -1581.75386053     A.U. after   13 cycles
 SCF Done:  E(RwB97XD) =  -1581.75389838     A.U. after   12 cycles
 SCF Done:  E(RwB97XD) =  -1581.75389503     A.U. after   12 cycles
 SCF Done:  E(RwB97XD) =  -1581.75390077     A.U. after   12 cycles
 SCF Done:  E(RwB97XD) =  -1581.75390139     A.U. after   10 cycles
 SCF Done:  E(RwB97XD) =  -1581.75389680     A.U. after   12 cycles
 SCF Done:  E(RwB97XD) =  -1581.75389866     A.U. after    8 cycles
 SCF Done:  E(RwB97XD) =  -1581.75389759     A.U. after    7 cycles
 Optimization completed.
    -- Stationary point found.

                         Standard orientation:
 ---------------------------------------------------------------------
 Center     Atomic      Atomic             Coordinates (Angstroms)
 Number     Number       Type             X           Y           Z
 ---------------------------------------------------------------------
      1          6           0        3.987400    4.898360    0.927510
      2          6           0        4.701785    3.841243    0.380707
      3          6           0        4.029773    2.660285    0.064105
      4          6           0        2.654380    2.609913    0.323871
      5          7           0        1.956512    3.617397    0.843673
      6          6           0        2.621405    4.737058    1.138015
      7          6           0        4.714910    1.486721   -0.527603
      8          6           0        5.909035    1.590222   -1.239059
      9          6           0        6.436913    0.403207   -1.736962
     10          7           0        5.857479   -0.778814   -1.577776
     11          6           0        4.697873   -0.764540   -0.891244
     12          7           0        4.111594    0.304675   -0.354223
     13          7           0        4.110351   -1.995734   -0.774266
     14          6           0        2.898514   -2.387119   -0.184072
     15          6           0        2.333774   -3.604623   -0.615092
     16          6           0        1.145625   -4.022054   -0.022800
     17          6           0        0.512592   -3.286090    0.970668
     18          6           0        1.073749   -2.077504    1.373878
     19          6           0        2.264605   -1.631655    0.803898
     20          7           0        0.488733   -1.284070    2.391807
     21          6           0       -0.842518   -1.066240    2.673399
     22          6           0       -1.841140   -1.204611    1.564732
     23          6           0       -1.550547   -0.894686    0.234173
     24          6           0       -2.546769   -0.970424   -0.730539
     25          6           0       -3.848630   -1.349309   -0.396360
     26          6           0       -4.124768   -1.669540    0.934602
     27          6           0       -3.139670   -1.581198    1.909198
     28          6           0       -4.948265   -1.375323   -1.448426
     29          7           0       -5.711681   -0.159715   -1.674023
     30          6           0       -5.028275    0.956981   -2.316807
     31          6           0       -4.421609    1.966376   -1.327385
     32          7           0       -5.381837    2.437002   -0.333126
     33          6           0       -6.350145    3.385757   -0.851584
     34          6           0       -5.979772    1.295997    0.354934
     35          6           0       -6.608656    0.276554   -0.609881
     36          8           0       -1.183919   -0.714752    3.790807
     37          6           0        2.991590   -4.435721   -1.687094
     38          1           0        4.478744    5.828313    1.193098
     39          1           0        5.773056    3.930351    0.225401
     40          1           0        2.101230    1.704522    0.088559
     41          1           0        2.030821    5.543628    1.566728
     42          1           0        6.398102    2.538660   -1.421355
     43          1           0        7.369910    0.404658   -2.297069
     44          1           0        4.626135   -2.705333   -1.272678
     45          1           0        0.703637   -4.961046   -0.345139
     46          1           0       -0.405502   -3.643786    1.422972
     47          1           0        2.687083   -0.685564    1.112570
     48          1           0        1.088616   -1.019801    3.162812
     49          1           0       -0.549038   -0.587526   -0.049205
     50          1           0       -2.311046   -0.722934   -1.763089
     51          1           0       -5.130660   -1.976171    1.213003
     52          1           0       -3.361853   -1.795414    2.949611
     53          1           0       -4.506769   -1.662464   -2.411068
     54          1           0       -5.666100   -2.162259   -1.184725
     55          1           0       -4.253129    0.562831   -2.984059
     56          1           0       -5.758416    1.476735   -2.955218
     57          1           0       -4.022617    2.831814   -1.870292
     58          1           0       -3.587436    1.501876   -0.788941
     59          1           0       -7.029259    2.997916   -1.631755
     60          1           0       -5.818148    4.245254   -1.273951
     61          1           0       -6.970561    3.749598   -0.025140
     62          1           0       -6.736089    1.663326    1.059156
     63          1           0       -5.189900    0.812607    0.941351
     64          1           0       -7.495604    0.727342   -1.079850
     65          1           0       -6.958526   -0.604013   -0.058889
     66          1           0        3.965971   -4.829647   -1.366642
     67          1           0        3.152248   -3.861516   -2.607779
     68          1           0        2.369436   -5.297357   -1.942023
 ---------------------------------------------------------------------

 The electronic state is 1-A.
 Alpha  occ. eigenvalues --  -19.23041 -14.49351 -14.47620 -14.45951 -14.45755
 Alpha  occ. eigenvalues --  -14.45335 -14.43236 -14.42522 -10.41716 -10.39920
 Alpha  occ. eigenvalues --  -10.37354 -10.36154 -10.35343 -10.34548 -10.34234
 Alpha  occ. eigenvalues --  -10.34003 -10.33302 -10.32751 -10.32175 -10.31920
 Alpha  occ. eigenvalues --  -10.31585 -10.31373 -10.30868 -10.30838 -10.30749
 Alpha  occ. eigenvalues --  -10.30671 -10.30595 -10.30544 -10.30509 -10.30170
 Alpha  occ. eigenvalues --  -10.30106 -10.30063 -10.30035 -10.30009 -10.29953
 Alpha  occ. eigenvalues --  -10.29859 -10.29722  -1.13323  -1.12258  -1.05320
 Alpha  occ. eigenvalues --   -1.04575  -1.03387  -1.02933  -1.00533  -0.99088
 Alpha  occ. eigenvalues --   -0.95802  -0.95195  -0.92517  -0.89323  -0.87532
 Alpha  occ. eigenvalues --   -0.87031  -0.86781  -0.84956  -0.84397  -0.84291
 Alpha  occ. eigenvalues --   -0.81457  -0.79537  -0.77874  -0.77766  -0.76370
 Alpha  occ. eigenvalues --   -0.73297  -0.72839  -0.72762  -0.72275  -0.70612
 Alpha  occ. eigenvalues --   -0.69932  -0.69587  -0.68631  -0.66277  -0.64849
 Alpha  occ. eigenvalues --   -0.64289  -0.63206  -0.61681  -0.60917  -0.59732
 Alpha  occ. eigenvalues --   -0.58647  -0.57520  -0.57081  -0.56519  -0.56334
 Alpha  occ. eigenvalues --   -0.55557  -0.55320  -0.54874  -0.54687  -0.54408
 Alpha  occ. eigenvalues --   -0.53964  -0.53341  -0.52800  -0.52213  -0.52122
 Alpha  occ. eigenvalues --   -0.51721  -0.51582  -0.51192  -0.50574  -0.50456
 Alpha  occ. eigenvalues --   -0.49892  -0.49730  -0.49396  -0.49173  -0.48250
 Alpha  occ. eigenvalues --   -0.48091  -0.46823  -0.46281  -0.45852  -0.45608
 Alpha  occ. eigenvalues --   -0.45362  -0.44778  -0.44633  -0.44335  -0.44054
 Alpha  occ. eigenvalues --   -0.43483  -0.42883  -0.41879  -0.41416  -0.41014
 Alpha  occ. eigenvalues --   -0.40474  -0.40406  -0.40189  -0.37362  -0.36688
 Alpha  occ. eigenvalues --   -0.35246  -0.34892  -0.33514  -0.33484  -0.33016
 Alpha  occ. eigenvalues --   -0.32567  -0.31527  -0.30365  -0.30185  -0.27800
 Alpha  occ. eigenvalues --   -0.24494
 Alpha virt. eigenvalues --    0.00144   0.03340   0.03671   0.04769   0.06299
 Alpha virt. eigenvalues --    0.07510   0.07746   0.10004   0.13828   0.15851
 Alpha virt. eigenvalues --    0.16197   0.17015   0.17681   0.18651   0.19015

 Mulliken atomic charges:
              1
     1  C   -0.195988
     2  C   -0.158217
     3  C    0.032269
     4  C    0.007103
     5  N   -0.417156
     6  C    0.025709
     7  C    0.290071
     8  C   -0.250785
     9  C    0.048780
    10  N   -0.495770
    11  C    0.704019
    12  N   -0.560714
    13  N   -0.798721
    14  C    0.293196
    15  C    0.117513
    16  C   -0.237837
    17  C   -0.165383
    18  C    0.272650
    19  C   -0.226869
    20  N   -0.730237
    21  C    0.547320
    22  C    0.018014
    23  C   -0.168270
    24  C   -0.225112
    25  C    0.158308
    26  C   -0.225315
    27  C   -0.179784
    28  C   -0.262201
    29  N   -0.380923
    30  C   -0.185714
    31  C   -0.182888
    32  N   -0.382489
    33  C   -0.349212
    34  C   -0.183623
    35  C   -0.185653
    36  O   -0.503417
    37  C   -0.606884
    38  H    0.182385
    39  H    0.181445
    40  H    0.201818
    41  H    0.183722
    42  H    0.180655
    43  H    0.188615
    44  H    0.368799
    45  H    0.164564
    46  H    0.177633
    47  H    0.207871
    48  H    0.362761
    49  H    0.188190
    50  H    0.162564
    51  H    0.162856
    52  H    0.195622
    53  H    0.167503
    54  H    0.167920
    55  H    0.150594
    56  H    0.158658
    57  H    0.152511
    58  H    0.173644
    59  H    0.133067
    60  H    0.166489
    61  H    0.166860
    62  H    0.152683
    63  H    0.175494
    64  H    0.158716
    65  H    0.151278
    66  H    0.180768
    67  H    0.188127
    68  H    0.190397
 Sum of Mulliken atomic charges =   0.00000

 Dipole moment (field-independent basis, Debye):
    X=              4.2054    Y=             -0.1885    Z=             -3.8080  Tot=              5.6764
 Quadrupole moment (field-independent basis, Debye-Ang):
   XX=           -183.6367   YY=           -191.3771   ZZ=           -225.0331
   XY=             16.5987   XZ=             -0.2139   YZ=              1.1786

 Normal termination of Gaussian 09 at Wed Mar  4 09:41:11 2020.
