 Gaussian 09, Revision A.02,
 Gaussian 09:  EM64L-G09RevA.02 11-Jun-2009

 --------------------------------------------------
 #P opt=(,maxcycle=400) wB97XD/6-31G* MaxDisk=100GB
 --------------------------------------------------

 -----------------------------------------------------------------
 MOLECULE0 Rotatable Bond Optimization on g2-node38.bme.utexas.edu
 -----------------------------------------------------------------
 Symbolic Z-matrix:
 Charge =  0 Multiplicity = 1

 SCF Done:  E(RwB97XD) =  -1581.50667662     A.U. after   16 cycles
 SCF Done:  E(RwB97XD) =  -1581.57161361     A.U. after   13 cycles
 SCF Done:  E(RwB97XD) =  -1581.66567680     A.U. after   14 cycles
 SCF Done:  E(RwB97XD) =  -1581.72727276     A.U. after   17 cycles
 SCF Done:  E(RwB97XD) =  -1581.75262085     A.U. after   14 cycles
 SCF Done:  E(RwB97XD) =  -1581.75388131     A.U. after   17 cycles
 SCF Done:  E(RwB97XD) =  -1581.75687049     A.U. after   17 cycles
 SCF Done:  E(RwB97XD) =  -1581.75890734     A.U. after   14 cycles
 SCF Done:  E(RwB97XD) =  -1581.76142067     A.U. after   14 cycles
 SCF Done:  E(RwB97XD) =  -1581.76149286     A.U. after   14 cycles
 SCF Done:  E(RwB97XD) =  -1581.76316415     A.U. after   12 cycles
 SCF Done:  E(RwB97XD) =  -1581.76319116     A.U. after   12 cycles
 SCF Done:  E(RwB97XD) =  -1581.76320667     A.U. after   12 cycles
 SCF Done:  E(RwB97XD) =  -1581.76321367     A.U. after    9 cycles
 SCF Done:  E(RwB97XD) =  -1581.76321415     A.U. after    9 cycles
 SCF Done:  E(RwB97XD) =  -1581.76321639     A.U. after    8 cycles
 SCF Done:  E(RwB97XD) =  -1581.76321621     A.U. after    8 cycles
 SCF Done:  E(RwB97XD) =  -1581.76321623     A.U. after    7 cycles
 SCF Done:  E(RwB97XD) =  -1581.76321606     A.U. after    7 cycles
 SCF Done:  E(RwB97XD) =  -1581.76321614     A.U. after    6 cycles
 Optimization completed.
    -- Stationary point found.

                         Standard orientation:
 ---------------------------------------------------------------------
 Center     Atomic      Atomic             Coordinates (Angstroms)
 Number     Number       Type             X           Y           Z
 ---------------------------------------------------------------------
      1          6           0       -0.473625    4.274935   -0.771887
      2          6           0        0.870895    4.192340   -0.430528
      3          6           0        1.547397    2.990375   -0.631592
      4          6           0        0.821031    1.926246   -1.182588
      5          7           0       -0.467918    1.989909   -1.511757
      6          6           0       -1.096897    3.149944   -1.300830
      7          6           0        2.969241    2.789261   -0.253815
      8          6           0        3.900171    3.819296   -0.154292
      9          6           0        5.186069    3.446780    0.235745
     10          7           0        5.545446    2.197443    0.497027
     11          6           0        4.572107    1.274975    0.354596
     12          7           0        3.312121    1.523605   -0.002163
     13          7           0        4.960880   -0.011025    0.613147
     14          6           0        4.245137   -1.217110    0.494615
     15          6           0        4.968883   -2.426815    0.479616
     16          6           0        4.248243   -3.609642    0.338364
     17          6           0        2.862477   -3.650877    0.195570
     18          6           0        2.171231   -2.443310    0.217285
     19          6           0        2.859587   -1.243366    0.393813
     20          7           0        0.784706   -2.305286    0.039476
     21          6           0       -0.155358   -3.232468   -0.330823
     22          6           0       -1.474742   -2.600973   -0.675262
     23          6           0       -1.549831   -1.357905   -1.310613
     24          6           0       -2.782158   -0.778604   -1.574359
     25          6           0       -3.965570   -1.409897   -1.191517
     26          6           0       -3.883909   -2.677452   -0.608230
     27          6           0       -2.653800   -3.274376   -0.357985
     28          6           0       -5.302553   -0.704054   -1.348513
     29          7           0       -5.692518    0.226084   -0.299692
     30          6           0       -5.025626    1.522806   -0.247573
     31          6           0       -3.815698    1.577823    0.702943
     32          7           0       -4.113016    1.068867    2.038979
     33          6           0       -4.901882    1.977863    2.851358
     34          6           0       -4.679043   -0.274580    1.939928
     35          6           0       -5.914167   -0.340235    1.026220
     36          8           0        0.036568   -4.436337   -0.364342
     37          6           0        6.471672   -2.442608    0.599183
     38          1           0       -1.033098    5.191571   -0.619185
     39          1           0        1.375877    5.045476    0.013349
     40          1           0        1.325225    0.980918   -1.366470
     41          1           0       -2.151827    3.176717   -1.565306
     42          1           0        3.661171    4.851102   -0.380107
     43          1           0        5.967586    4.196953    0.338784
     44          1           0        5.942058   -0.077069    0.839285
     45          1           0        4.796447   -4.548341    0.325185
     46          1           0        2.333507   -4.584936    0.064857
     47          1           0        2.314539   -0.311987    0.419199
     48          1           0        0.446176   -1.358839    0.130735
     49          1           0       -0.653365   -0.832819   -1.627310
     50          1           0       -2.810030    0.190891   -2.065191
     51          1           0       -4.798648   -3.197403   -0.332103
     52          1           0       -2.590106   -4.256984    0.098831
     53          1           0       -5.308340   -0.148741   -2.294251
     54          1           0       -6.094953   -1.459833   -1.422909
     55          1           0       -4.723858    1.804203   -1.263600
     56          1           0       -5.767023    2.267942    0.078391
     57          1           0       -3.458474    2.611721    0.792558
     58          1           0       -2.990820    0.982682    0.295728
     59          1           0       -5.911978    2.205424    2.467359
     60          1           0       -4.364247    2.927279    2.951588
     61          1           0       -5.017571    1.550896    3.853546
     62          1           0       -4.937508   -0.623261    2.947189
     63          1           0       -3.897129   -0.937977    1.552336
     64          1           0       -6.742885    0.208172    1.498329
     65          1           0       -6.247921   -1.378020    0.915210
     66          1           0        6.817220   -2.031217    1.557488
     67          1           0        6.951878   -1.866013   -0.202100
     68          1           0        6.851948   -3.465218    0.535214
 ---------------------------------------------------------------------

 The electronic state is 1-A.
 Alpha  occ. eigenvalues --  -19.23411 -14.49282 -14.48321 -14.46751 -14.46096
 Alpha  occ. eigenvalues --  -14.45764 -14.43616 -14.43135 -10.41778 -10.40081
 Alpha  occ. eigenvalues --  -10.37615 -10.36338 -10.35325 -10.35084 -10.34623
 Alpha  occ. eigenvalues --  -10.34135 -10.34016 -10.33623 -10.32863 -10.32367
 Alpha  occ. eigenvalues --  -10.31860 -10.31493 -10.31179 -10.30935 -10.30708
 Alpha  occ. eigenvalues --  -10.30688 -10.30677 -10.30586 -10.30534 -10.30403
 Alpha  occ. eigenvalues --  -10.30377 -10.30220 -10.30020 -10.29975 -10.29575
 Alpha  occ. eigenvalues --  -10.28740 -10.28405  -1.13443  -1.12295  -1.06322
 Alpha  occ. eigenvalues --   -1.04565  -1.03828  -1.03634  -1.00715  -0.99558
 Alpha  occ. eigenvalues --   -0.96086  -0.94671  -0.93098  -0.89778  -0.88124
 Alpha  occ. eigenvalues --   -0.87388  -0.86227  -0.85399  -0.84542  -0.83783
 Alpha  occ. eigenvalues --   -0.81888  -0.79581  -0.78270  -0.77798  -0.76320
 Alpha  occ. eigenvalues --   -0.73881  -0.73301  -0.73025  -0.72621  -0.70870
 Alpha  occ. eigenvalues --   -0.70314  -0.69614  -0.68039  -0.66413  -0.65150
 Alpha  occ. eigenvalues --   -0.63656  -0.63409  -0.62228  -0.61762  -0.60211
 Alpha  occ. eigenvalues --   -0.58848  -0.58045  -0.57570  -0.56611  -0.56101
 Alpha  occ. eigenvalues --   -0.55817  -0.55237  -0.55134  -0.54965  -0.54255
 Alpha  occ. eigenvalues --   -0.53867  -0.53239  -0.53154  -0.52612  -0.52174
 Alpha  occ. eigenvalues --   -0.51912  -0.51510  -0.51370  -0.50999  -0.50575
 Alpha  occ. eigenvalues --   -0.50365  -0.50116  -0.49974  -0.49497  -0.48335
 Alpha  occ. eigenvalues --   -0.47217  -0.46906  -0.46619  -0.46319  -0.46211
 Alpha  occ. eigenvalues --   -0.45762  -0.45236  -0.44797  -0.44045  -0.43932
 Alpha  occ. eigenvalues --   -0.43327  -0.43016  -0.42141  -0.41766  -0.41439
 Alpha  occ. eigenvalues --   -0.40964  -0.40777  -0.39912  -0.38187  -0.37592
 Alpha  occ. eigenvalues --   -0.35821  -0.35293  -0.34001  -0.33446  -0.33373
 Alpha  occ. eigenvalues --   -0.32819  -0.31904  -0.30772  -0.29115  -0.27079
 Alpha  occ. eigenvalues --   -0.24996
 Alpha virt. eigenvalues --   -0.00292   0.02872   0.03585   0.04480   0.06433
 Alpha virt. eigenvalues --    0.07258   0.08204   0.10371   0.13887   0.14815
 Alpha virt. eigenvalues --    0.15728   0.16386   0.17252   0.17441   0.18251

 Mulliken atomic charges:
              1
     1  C   -0.197840
     2  C   -0.154405
     3  C    0.035500
     4  C    0.009581
     5  N   -0.437525
     6  C    0.035726
     7  C    0.295162
     8  C   -0.254760
     9  C    0.049015
    10  N   -0.493039
    11  C    0.714355
    12  N   -0.568399
    13  N   -0.802053
    14  C    0.291482
    15  C    0.119863
    16  C   -0.240380
    17  C   -0.191302
    18  C    0.358144
    19  C   -0.269680
    20  N   -0.757979
    21  C    0.585754
    22  C    0.015199
    23  C   -0.205363
    24  C   -0.217905
    25  C    0.155972
    26  C   -0.223074
    27  C   -0.178386
    28  C   -0.263564
    29  N   -0.382229
    30  C   -0.183889
    31  C   -0.181772
    32  N   -0.385715
    33  C   -0.349274
    34  C   -0.182631
    35  C   -0.186513
    36  O   -0.513290
    37  C   -0.607361
    38  H    0.186142
    39  H    0.186726
    40  H    0.198131
    41  H    0.179046
    42  H    0.180745
    43  H    0.189492
    44  H    0.369210
    45  H    0.160819
    46  H    0.213085
    47  H    0.199351
    48  H    0.361556
    49  H    0.185470
    50  H    0.172053
    51  H    0.163619
    52  H    0.195613
    53  H    0.170285
    54  H    0.168916
    55  H    0.148148
    56  H    0.158351
    57  H    0.141670
    58  H    0.174876
    59  H    0.135266
    60  H    0.164118
    61  H    0.167872
    62  H    0.153492
    63  H    0.172922
    64  H    0.159408
    65  H    0.154994
    66  H    0.178033
    67  H    0.182747
    68  H    0.190417
 Sum of Mulliken atomic charges =   0.00000

 Dipole moment (field-independent basis, Debye):
    X=              0.5800    Y=              6.5721    Z=              0.4334  Tot=              6.6118
 Quadrupole moment (field-independent basis, Debye-Ang):
   XX=           -193.2973   YY=           -202.5044   ZZ=           -220.4861
   XY=              3.1061   XZ=             -1.2788   YZ=             -5.2183

 Normal termination of Gaussian 09 at Wed Mar 11 02:08:00 2020.
