                               Psi4 1.3.2 release

  ==> Input File <==

--------------------------------------------------------------------------
molecule {
0 1
 C    3.437805    4.744917   -4.617847
 C    4.189438    4.504310   -3.459904
 C    3.924070    3.368040   -2.668523
 C    2.888990    2.522048   -3.136657
 N    2.161839    2.734502   -4.240487
 C    2.435895    3.831279   -4.961935
 C    4.679468    3.040288   -1.404189
 C    5.758725    3.782810   -0.896756
 C    6.326161    3.300396    0.286454
 N    5.901777    2.221377    0.935620
 C    4.850417    1.577593    0.385106
 N    4.239754    1.948894   -0.743957
 N    4.422419    0.465735    1.091769
 C    3.423227   -0.547380    0.868942
 C    3.490717   -1.756049    1.627648
 C    2.503141   -2.723334    1.383635
 C    1.474991   -2.568748    0.448069
 C    1.413090   -1.373727   -0.278107
 C    2.389497   -0.385889   -0.063338
 N    0.428424   -1.076534   -1.267626
 C   -0.525581   -1.891181   -1.818289
 C   -1.969393   -1.581227   -1.484234
 C   -2.461193   -0.277363   -1.312856
 C   -3.806524   -0.065513   -1.002526
 C   -4.705784   -1.138878   -0.857322
 C   -4.197257   -2.440946   -1.026309
 C   -2.855966   -2.662092   -1.346449
 C   -6.166134   -0.901949   -0.468647
 N   -6.509491   -0.728955    0.954456
 C   -6.172789    0.548286    1.622522
 C   -4.818381    0.544984    2.377323
 N   -4.671612   -0.562209    3.351010
 C   -5.299639   -0.371968    4.664196
 C   -4.955556   -1.845471    2.663585
 C   -6.294183   -1.865619    1.879609
 O   -0.242951   -2.836712   -2.532484
 C    4.572280   -2.045487    2.655052
 H    3.622432    5.616962   -5.238291
 H    4.962953    5.220803   -3.194940
 H    2.647333    1.611898   -2.598744
 H    1.829020    3.977795   -5.853987
 H    6.165303    4.668092   -1.370156
 H    7.173568    3.814196    0.739730
 H    5.026655    0.329746    1.888278
 H    2.530633   -3.662104    1.935793
 H    0.750775   -3.358165    0.284301
 H    2.356768    0.534910   -0.625381
 H    0.480235   -0.156083   -1.680737
 H   -1.788441    0.568508   -1.423827
 H   -4.157407    0.958096   -0.870741
 H   -4.854353   -3.302476   -0.909461
 H   -2.474566   -3.670196   -1.489205
 H   -6.525706   -0.006046   -0.995704
 H   -6.764179   -1.749448   -0.834138
 H   -6.264971    1.351837    0.958030
 H   -7.270962    0.773404    2.747363
 H   -4.726504    1.843587    3.119244
 H   -3.924068    0.493447    1.639598
 H   -6.390957   -0.325274    4.576496
 H   -4.941420    0.556082    5.123815
 H   -5.035864   -1.199909    5.332137
 H   -4.894497   -2.675262    3.390206
 H   -3.854736   -2.048184    1.660532
 H   -7.420879   -1.784421    2.974321
 H   -6.438832   -2.881032    1.318539
 H    4.512201   -1.352269    3.506019
 H    5.577171   -1.949070    2.219770
 H    4.509022   -3.060572    3.070957
}
memory 20GB
set_num_threads(6)
psi4_io.set_default_path("/scratch/bdw2292")
set freeze_core True
E, wfn = energy('mp2/6-311++G**',return_wfn=True)
oeprop(wfn,"WIBERG_LOWDIN_INDICES")
clean()
--------------------------------------------------------------------------

    Molecular point group: c1

    Geometry (in Angstrom), charge = 0, multiplicity = 1:

       Center              X                  Y                   Z               Mass
    ------------   -----------------  -----------------  -----------------  -----------------
         C            3.262952473702     4.567161653678    -4.335794432507    12.000000000000
         C            4.014585473702     4.326554653678    -3.177851432507    12.000000000000
         C            3.749217473702     3.190284653678    -2.386470432507    12.000000000000
         C            2.714137473702     2.344292653678    -2.854604432507    12.000000000000
         N            1.986986473702     2.556746653678    -3.958434432507    14.003074004430
         C            2.261042473702     3.653523653678    -4.679882432507    12.000000000000
         C            4.504615473702     2.862532653678    -1.122136432507    12.000000000000
         C            5.583872473702     3.605054653678    -0.614703432507    12.000000000000
         C            6.151308473702     3.122640653678     0.568506567493    12.000000000000
         N            5.726924473702     2.043621653678     1.217672567493    14.003074004430
         C            4.675564473702     1.399837653678     0.667158567493    12.000000000000
         N            4.064901473702     1.771138653678    -0.461904432507    14.003074004430
         N            4.247566473702     0.287979653678     1.373821567493    14.003074004430
         C            3.248374473702    -0.725135346322     1.150994567493    12.000000000000
         C            3.315864473702    -1.933804346322     1.909700567493    12.000000000000
         C            2.328288473702    -2.901089346322     1.665687567493    12.000000000000
         C            1.300138473702    -2.746503346322     0.730121567493    12.000000000000
         C            1.238237473702    -1.551482346322     0.003945567493    12.000000000000
         C            2.214644473702    -0.563644346322     0.218714567493    12.000000000000
         N            0.253571473702    -1.254289346322    -0.985573432507    14.003074004430
         C           -0.700433526298    -2.068936346322    -1.536236432507    12.000000000000
         C           -2.144245526298    -1.758982346322    -1.202181432507    12.000000000000
         C           -2.636045526298    -0.455118346322    -1.030803432507    12.000000000000
         C           -3.981376526298    -0.243268346322    -0.720473432507    12.000000000000
         C           -4.880636526298    -1.316633346322    -0.575269432507    12.000000000000
         C           -4.372109526298    -2.618701346322    -0.744256432507    12.000000000000
         C           -3.030818526298    -2.839847346322    -1.064396432507    12.000000000000
         C           -6.340986526298    -1.079704346322    -0.186594432507    12.000000000000
         N           -6.684343526298    -0.906710346322     1.236508567493    14.003074004430
         C           -6.347641526298     0.370530653678     1.904574567493    12.000000000000
         C           -4.993233526298     0.367228653678     2.659375567493    12.000000000000
         N           -4.846464526298    -0.739964346322     3.633062567493    14.003074004430
         C           -5.474491526298    -0.549723346322     4.946248567493    12.000000000000
         C           -5.130408526298    -2.023226346322     2.945637567493    12.000000000000
         C           -6.469035526298    -2.043374346322     2.161661567493    12.000000000000
         O           -0.417803526298    -3.014467346322    -2.250431432507    15.994914619570
         C            4.397427473702    -2.223242346322     2.937104567493    12.000000000000
         H            3.447579473702     5.439206653678    -4.956238432507     1.007825032230
         H            4.788100473702     5.043047653678    -2.912887432507     1.007825032230
         H            2.472480473702     1.434142653678    -2.316691432507     1.007825032230
         H            1.654167473702     3.800039653678    -5.571934432507     1.007825032230
         H            5.990450473702     4.490336653678    -1.088103432507     1.007825032230
         H            6.998715473702     3.636440653678     1.021782567493     1.007825032230
         H            4.851802473702     0.151990653678     2.170330567493     1.007825032230
         H            2.355780473702    -3.839859346322     2.217845567493     1.007825032230
         H            0.575922473702    -3.535920346322     0.566353567493     1.007825032230
         H            2.181915473702     0.357154653678    -0.343328432507     1.007825032230
         H            0.305382473702    -0.333838346322    -1.398684432507     1.007825032230
         H           -1.963293526298     0.390752653678    -1.141774432507     1.007825032230
         H           -4.332259526298     0.780340653678    -0.588688432507     1.007825032230
         H           -5.029205526298    -3.480231346322    -0.627408432507     1.007825032230
         H           -2.649418526298    -3.847951346322    -1.207152432507     1.007825032230
         H           -6.700558526298    -0.183801346322    -0.713651432507     1.007825032230
         H           -6.939031526298    -1.927203346322    -0.552085432507     1.007825032230
         H           -6.439823526298     1.174081653678     1.240082567493     1.007825032230
         H           -7.445814526298     0.595648653678     3.029415567493     1.007825032230
         H           -4.901356526298     1.665831653678     3.401296567493     1.007825032230
         H           -4.098920526298     0.315691653678     1.921650567493     1.007825032230
         H           -6.565809526298    -0.503029346322     4.858548567493     1.007825032230
         H           -5.116272526298     0.378326653678     5.405867567493     1.007825032230
         H           -5.210716526298    -1.377664346322     5.614189567493     1.007825032230
         H           -5.069349526298    -2.853017346322     3.672258567493     1.007825032230
         H           -4.029588526298    -2.225939346322     1.942584567493     1.007825032230
         H           -7.595731526298    -1.962176346322     3.256373567493     1.007825032230
         H           -6.613684526298    -3.058787346322     1.600591567493     1.007825032230
         H            4.337348473702    -1.530024346322     3.788071567493     1.007825032230
         H            5.402318473702    -2.126825346322     2.501822567493     1.007825032230
         H            4.334169473702    -3.238327346322     3.353009567493     1.007825032230

  Charge       = 0
  Multiplicity = 1
  Basis Set: 6-311++G**
    Blend: 6-311++G**
  Basis Set: (6-311++G** AUX)
    Blend: AUG-CC-PVTZ-JKFIT

    Orbital Energies [Eh]
    ---------------------

    Doubly Occupied:

       1A    -20.552592     2A    -15.601357     3A    -15.580081
       4A    -15.578650     5A    -15.574926     6A    -15.571074
       7A    -15.567577     8A    -15.555518     9A    -11.372924
      10A    -11.372299    11A    -11.331607    12A    -11.317647
      13A    -11.310950    14A    -11.304811    15A    -11.304235
      16A    -11.301588    17A    -11.300756    18A    -11.297799
      19A    -11.295192    20A    -11.294591    21A    -11.284455
      22A    -11.283219    23A    -11.275262    24A    -11.261876
      25A    -11.261138    26A    -11.260279    27A    -11.259808
      28A    -11.254556    29A    -11.252604    30A    -11.250266
      31A    -11.249061    32A    -11.244050    33A    -11.242314
      34A    -11.241150    35A    -11.233165    36A    -11.227162
      37A    -11.226796    38A     -1.405106    39A     -1.342027
      40A     -1.272361    41A     -1.250093    42A     -1.248494
      43A     -1.239834    44A     -1.206708    45A     -1.202103
      46A     -1.166569    47A     -1.138192    48A     -1.111286
      49A     -1.072057    50A     -1.062058    51A     -1.044720
      52A     -1.037045    53A     -1.029448    54A     -1.007438
      55A     -1.002327    56A     -0.980395    57A     -0.945082
      58A     -0.930242    59A     -0.922361    60A     -0.898439
      61A     -0.871298    62A     -0.867924    63A     -0.854000
      64A     -0.850851    65A     -0.842353    66A     -0.834482
      67A     -0.822830    68A     -0.809527    69A     -0.779116
      70A     -0.750483    71A     -0.736599    72A     -0.732591
      73A     -0.718207    74A     -0.711941    75A     -0.703423
      76A     -0.683734    77A     -0.679359    78A     -0.666568
      79A     -0.665167    80A     -0.654389    81A     -0.653788
      82A     -0.650798    83A     -0.646895    84A     -0.632175
      85A     -0.626932    86A     -0.619398    87A     -0.617847
      88A     -0.612003    89A     -0.610523    90A     -0.605068
      91A     -0.601863    92A     -0.599743    93A     -0.598787
      94A     -0.588998    95A     -0.582003    96A     -0.580557
      97A     -0.579982    98A     -0.576096    99A     -0.556216
     100A     -0.550482   101A     -0.543725   102A     -0.539814
     103A     -0.539144   104A     -0.534904   105A     -0.531212
     106A     -0.523269   107A     -0.512613   108A     -0.508691
     109A     -0.507545   110A     -0.501423   111A     -0.500754
     112A     -0.493956   113A     -0.491719   114A     -0.482789
     115A     -0.457889   116A     -0.449619   117A     -0.446673
     118A     -0.435808   119A     -0.427906   120A     -0.420815
     121A     -0.411635   122A     -0.395562   123A     -0.395182
     124A     -0.381135   125A     -0.370908   126A     -0.349570
     127A     -0.347149   128A     -0.342293   129A     -0.313615
     130A     -0.309519   131A     -0.285394

  @DF-RHF Final Energy: -1572.29666139443771

   => Energetics <=

    Nuclear Repulsion Energy =           3653.6299618522220953
    One-Electron Energy =               -9405.2833677646958677
    Two-Electron Energy =                4179.3567445180360664
    Total Energy =                      -1572.2966613944372511

  Dipole Moment: [D]
     X:     1.6116      Y:     4.6124      Z:     0.3649     Total:     4.8994

  Basis Set: (6-311++G** AUX)
    Blend: AUG-CC-PVTZ-RI
	 Reference Energy          =   -1572.2966613944377059 [Eh]
	 Singles Energy            =      -0.0000000000000000 [Eh]
	 Same-Spin Energy          =      -1.4682639245686282 [Eh]
	 Opposite-Spin Energy      =      -4.0467610987096387 [Eh]
	 Correlation Energy        =      -5.5150250232782669 [Eh]
	 Total Energy              =   -1577.8116864177159187 [Eh]

	 ================> DF-SCS-MP2 Energies <==================
	-----------------------------------------------------------
	 SCS Same-Spin Scale       =       0.3333333333333333 [-]
	 SCS Opposite-Spin Scale   =       1.2000000000000000 [-]
	 SCS Same-Spin Energy      =      -0.4894213081895427 [Eh]
	 SCS Opposite-Spin Energy  =      -4.8561133184515661 [Eh]
	 SCS Correlation Energy    =      -5.3455346266411086 [Eh]
	 SCS Total Energy          =   -1577.6421960210789166 [Eh]
	-----------------------------------------------------------

*** Psi4 exiting successfully. Buy a developer a beer!
