 Gaussian 09, Revision A.02,
 Gaussian 09:  EM64L-G09RevA.02 11-Jun-2009

 --------------------------------------------------
 #P opt=(,maxcycle=400) wB97XD/6-31G* MaxDisk=100GB
 --------------------------------------------------

 -----------------------------------------------------------------
 MOLECULE0 Rotatable Bond Optimization on g2-node38.bme.utexas.edu
 -----------------------------------------------------------------
 Symbolic Z-matrix:
 Charge =  0 Multiplicity = 1

 SCF Done:  E(RwB97XD) =  -1581.49625779     A.U. after   16 cycles
 SCF Done:  E(RwB97XD) =  -1581.55633104     A.U. after   13 cycles
 SCF Done:  E(RwB97XD) =  -1581.65558262     A.U. after   14 cycles
 SCF Done:  E(RwB97XD) =  -1581.70733605     A.U. after   14 cycles
 SCF Done:  E(RwB97XD) =  -1581.72883998     A.U. after   15 cycles
 SCF Done:  E(RwB97XD) =  -1581.73342687     A.U. after   17 cycles
 SCF Done:  E(RwB97XD) =  -1581.73777308     A.U. after   14 cycles
 SCF Done:  E(RwB97XD) =  -1581.74318774     A.U. after   17 cycles
 SCF Done:  E(RwB97XD) =  -1581.75045766     A.U. after   17 cycles
 SCF Done:  E(RwB97XD) =  -1581.75633439     A.U. after   14 cycles
 SCF Done:  E(RwB97XD) =  -1581.76317858     A.U. after   12 cycles
 SCF Done:  E(RwB97XD) =  -1581.76318170     A.U. after   12 cycles
 SCF Done:  E(RwB97XD) =  -1581.76320664     A.U. after   12 cycles
 SCF Done:  E(RwB97XD) =  -1581.76321052     A.U. after   11 cycles
 SCF Done:  E(RwB97XD) =  -1581.76321469     A.U. after   11 cycles
 SCF Done:  E(RwB97XD) =  -1581.76321557     A.U. after    8 cycles
 SCF Done:  E(RwB97XD) =  -1581.76321634     A.U. after    8 cycles
 SCF Done:  E(RwB97XD) =  -1581.76321606     A.U. after    7 cycles
 SCF Done:  E(RwB97XD) =  -1581.76321611     A.U. after    7 cycles
 SCF Done:  E(RwB97XD) =  -1581.76321613     A.U. after    6 cycles
 Optimization completed.
    -- Stationary point found.

                         Standard orientation:
 ---------------------------------------------------------------------
 Center     Atomic      Atomic             Coordinates (Angstroms)
 Number     Number       Type             X           Y           Z
 ---------------------------------------------------------------------
      1          6           0       -0.473753    4.274996   -0.771707
      2          6           0        0.870787    4.192384   -0.430438
      3          6           0        1.547242    2.990386   -0.631490
      4          6           0        0.820823    1.926270   -1.182422
      5          7           0       -0.468148    1.989952   -1.511503
      6          6           0       -1.097091    3.149999   -1.300559
      7          6           0        2.969116    2.789305   -0.253777
      8          6           0        3.900081    3.819315   -0.154515
      9          6           0        5.186012    3.446820    0.235478
     10          7           0        5.545399    2.197527    0.496870
     11          6           0        4.572027    1.275046    0.354632
     12          7           0        3.311996    1.523664   -0.001965
     13          7           0        4.960844   -0.010922    0.613241
     14          6           0        4.245166   -1.217045    0.494636
     15          6           0        4.968971   -2.426711    0.479542
     16          6           0        4.248382   -3.609564    0.338243
     17          6           0        2.862609   -3.650847    0.195525
     18          6           0        2.171317   -2.443312    0.217358
     19          6           0        2.859614   -1.243345    0.393892
     20          7           0        0.784769   -2.305360    0.039695
     21          6           0       -0.155245   -3.232525   -0.330787
     22          6           0       -1.474667   -2.601046   -0.675146
     23          6           0       -1.549744   -1.358049   -1.310644
     24          6           0       -2.782047   -0.778721   -1.574434
     25          6           0       -3.965465   -1.409924   -1.191487
     26          6           0       -3.883824   -2.677404   -0.608033
     27          6           0       -2.653734   -3.274367   -0.357766
     28          6           0       -5.302461   -0.704107   -1.348579
     29          7           0       -5.692529    0.226050   -0.299801
     30          6           0       -5.025565    1.522727   -0.247689
     31          6           0       -3.815658    1.577692    0.702854
     32          7           0       -4.113004    1.068761    2.038887
     33          6           0       -4.901920    1.977787    2.851216
     34          6           0       -4.679109   -0.274652    1.939814
     35          6           0       -5.914218   -0.340265    1.026097
     36          8           0        0.036746   -4.436372   -0.364540
     37          6           0        6.471763   -2.442446    0.599074
     38          1           0       -1.033192    5.191652   -0.619001
     39          1           0        1.375851    5.045519    0.013346
     40          1           0        1.324965    0.980923   -1.366328
     41          1           0       -2.152043    3.176789   -1.564946
     42          1           0        3.661082    4.851084   -0.380495
     43          1           0        5.967530    4.197014    0.338371
     44          1           0        5.942057   -0.076958    0.839228
     45          1           0        4.796620   -4.548240    0.324959
     46          1           0        2.333680   -4.584926    0.064788
     47          1           0        2.314540   -0.311987    0.419357
     48          1           0        0.446187   -1.358947    0.131099
     49          1           0       -0.653266   -0.833019   -1.627399
     50          1           0       -2.809881    0.190706   -2.065395
     51          1           0       -4.798566   -3.197289   -0.331794
     52          1           0       -2.590113   -4.256929    0.099154
     53          1           0       -5.308140   -0.148809   -2.294329
     54          1           0       -6.094834   -1.459899   -1.423072
     55          1           0       -4.723768    1.804105   -1.263714
     56          1           0       -5.766902    2.267896    0.078238
     57          1           0       -3.458380    2.611600    0.792470
     58          1           0       -2.990800    0.982525    0.295652
     59          1           0       -5.911962    2.205372    2.467110
     60          1           0       -4.364255    2.927177    2.951505
     61          1           0       -5.017696    1.550793    3.853379
     62          1           0       -4.937621   -0.623313    2.947068
     63          1           0       -3.897242   -0.938099    1.552232
     64          1           0       -6.742957    0.208142    1.498193
     65          1           0       -6.247952   -1.378065    0.915109
     66          1           0        6.817298   -2.031136    1.557418
     67          1           0        6.951942   -1.865758   -0.202158
     68          1           0        6.852086   -3.465031    0.534991
 ---------------------------------------------------------------------

 The electronic state is 1-A.
 Alpha  occ. eigenvalues --  -19.23411 -14.49282 -14.48321 -14.46751 -14.46096
 Alpha  occ. eigenvalues --  -14.45764 -14.43616 -14.43135 -10.41778 -10.40081
 Alpha  occ. eigenvalues --  -10.37615 -10.36338 -10.35325 -10.35084 -10.34623
 Alpha  occ. eigenvalues --  -10.34135 -10.34016 -10.33622 -10.32863 -10.32367
 Alpha  occ. eigenvalues --  -10.31860 -10.31492 -10.31179 -10.30936 -10.30708
 Alpha  occ. eigenvalues --  -10.30688 -10.30677 -10.30586 -10.30533 -10.30403
 Alpha  occ. eigenvalues --  -10.30377 -10.30220 -10.30020 -10.29974 -10.29575
 Alpha  occ. eigenvalues --  -10.28740 -10.28405  -1.13443  -1.12295  -1.06322
 Alpha  occ. eigenvalues --   -1.04565  -1.03829  -1.03634  -1.00715  -0.99558
 Alpha  occ. eigenvalues --   -0.96086  -0.94671  -0.93098  -0.89777  -0.88124
 Alpha  occ. eigenvalues --   -0.87388  -0.86228  -0.85399  -0.84542  -0.83783
 Alpha  occ. eigenvalues --   -0.81888  -0.79581  -0.78270  -0.77798  -0.76320
 Alpha  occ. eigenvalues --   -0.73881  -0.73301  -0.73025  -0.72621  -0.70870
 Alpha  occ. eigenvalues --   -0.70314  -0.69615  -0.68039  -0.66413  -0.65150
 Alpha  occ. eigenvalues --   -0.63656  -0.63408  -0.62228  -0.61762  -0.60211
 Alpha  occ. eigenvalues --   -0.58848  -0.58045  -0.57570  -0.56611  -0.56101
 Alpha  occ. eigenvalues --   -0.55817  -0.55236  -0.55134  -0.54965  -0.54255
 Alpha  occ. eigenvalues --   -0.53867  -0.53239  -0.53154  -0.52612  -0.52174
 Alpha  occ. eigenvalues --   -0.51912  -0.51510  -0.51370  -0.50999  -0.50575
 Alpha  occ. eigenvalues --   -0.50365  -0.50116  -0.49974  -0.49497  -0.48335
 Alpha  occ. eigenvalues --   -0.47217  -0.46906  -0.46619  -0.46319  -0.46211
 Alpha  occ. eigenvalues --   -0.45762  -0.45235  -0.44798  -0.44045  -0.43932
 Alpha  occ. eigenvalues --   -0.43328  -0.43016  -0.42141  -0.41766  -0.41439
 Alpha  occ. eigenvalues --   -0.40964  -0.40776  -0.39912  -0.38187  -0.37592
 Alpha  occ. eigenvalues --   -0.35821  -0.35293  -0.34001  -0.33447  -0.33373
 Alpha  occ. eigenvalues --   -0.32818  -0.31904  -0.30772  -0.29115  -0.27080
 Alpha  occ. eigenvalues --   -0.24996
 Alpha virt. eigenvalues --   -0.00292   0.02872   0.03586   0.04480   0.06433
 Alpha virt. eigenvalues --    0.07258   0.08204   0.10371   0.13887   0.14814
 Alpha virt. eigenvalues --    0.15728   0.16386   0.17252   0.17441   0.18251

 Mulliken atomic charges:
              1
     1  C   -0.197841
     2  C   -0.154403
     3  C    0.035509
     4  C    0.009580
     5  N   -0.437522
     6  C    0.035729
     7  C    0.295151
     8  C   -0.254767
     9  C    0.049020
    10  N   -0.493036
    11  C    0.714351
    12  N   -0.568396
    13  N   -0.802035
    14  C    0.291459
    15  C    0.119867
    16  C   -0.240381
    17  C   -0.191301
    18  C    0.358132
    19  C   -0.269678
    20  N   -0.757955
    21  C    0.585720
    22  C    0.015196
    23  C   -0.205351
    24  C   -0.217895
    25  C    0.155963
    26  C   -0.223078
    27  C   -0.178382
    28  C   -0.263562
    29  N   -0.382224
    30  C   -0.183897
    31  C   -0.181777
    32  N   -0.385713
    33  C   -0.349278
    34  C   -0.182634
    35  C   -0.186520
    36  O   -0.513273
    37  C   -0.607366
    38  H    0.186140
    39  H    0.186726
    40  H    0.198122
    41  H    0.179046
    42  H    0.180745
    43  H    0.189489
    44  H    0.369211
    45  H    0.160820
    46  H    0.213084
    47  H    0.199363
    48  H    0.361556
    49  H    0.185462
    50  H    0.172060
    51  H    0.163617
    52  H    0.195606
    53  H    0.170282
    54  H    0.168920
    55  H    0.148153
    56  H    0.158358
    57  H    0.141659
    58  H    0.174886
    59  H    0.135271
    60  H    0.164120
    61  H    0.167873
    62  H    0.153489
    63  H    0.172926
    64  H    0.159408
    65  H    0.154994
    66  H    0.178038
    67  H    0.182744
    68  H    0.190419
 Sum of Mulliken atomic charges =   0.00000

 Dipole moment (field-independent basis, Debye):
    X=              0.5801    Y=              6.5718    Z=              0.4333  Tot=              6.6115
 Quadrupole moment (field-independent basis, Debye-Ang):
   XX=           -193.2971   YY=           -202.5052   ZZ=           -220.4857
   XY=              3.1065   XZ=             -1.2821   YZ=             -5.2209

 Normal termination of Gaussian 09 at Thu Feb 27 17:08:20 2020.
