                               Psi4 1.3.2 release

  ==> Input File <==

--------------------------------------------------------------------------
molecule {
0 1
 C   -8.506491   -3.596460   -0.643029
 C   -7.151848   -3.300143   -0.446013
 C   -6.743263   -1.966458   -0.243571
 C   -7.775033   -0.995748   -0.256119
 N   -9.074718   -1.262063   -0.442448
 C   -9.425709   -2.542510   -0.632128
 C   -5.308063   -1.556693   -0.026034
 C   -4.219336   -2.445131    0.002334
 C   -2.963288   -1.867636    0.212829
 N   -2.758232   -0.564336    0.381279
 C   -3.858011    0.215789    0.351643
 N   -5.097603   -0.237328    0.154014
 N   -3.674963    1.572929    0.541054
 C   -2.551635    2.478460    0.459853
 C   -2.775418    3.872069    0.688324
 C   -1.666534    4.729056    0.602259
 C   -0.368661    4.297929    0.310364
 C   -0.155962    2.931937    0.095994
 C   -1.248888    2.051164    0.168422
 N    1.108596    2.333456   -0.215758
 C    2.382660    2.854736   -0.235140
 C    3.510158    1.924831   -0.642426
 C    3.358795    0.877864   -1.566794
 C    4.433922    0.037900   -1.866272
 C    5.698723    0.222255   -1.276177
 C    5.849233    1.307752   -0.391547
 C    4.781102    2.156057   -0.090198
 C    6.855399   -0.737809   -1.563037
 N    7.005736   -1.952451   -0.743552
 C    6.045873   -3.065664   -0.922348
 C    4.835343   -3.032074    0.046614
 N    5.211257   -2.930480    1.477635
 C    5.579939   -4.180484    2.151988
 C    6.140990   -1.786983    1.650106
 C    7.357380   -1.809735    0.687970
 O    2.629035    4.009896    0.073989
 C   -4.138256    4.461243    1.014591
 H   -8.842905   -4.616632   -0.801912
 H   -6.438777   -4.120743   -0.456355
 H   -7.538569    0.054230   -0.108793
 H  -10.489897   -2.719138   -0.780847
 H   -4.296330   -3.517666   -0.124773
 H   -2.052913   -2.465589    0.250110
 H   -4.565469    1.994807    0.756192
 H   -1.806244    5.796756    0.767222
 H    0.459894    4.993337    0.259476
 H   -1.092486    0.996392    0.002894
 H    1.062036    1.331869   -0.338458
 H    2.396680    0.725476   -2.049516
 H    4.276427   -0.784971   -2.563542
 H    6.811552    1.486415    0.087007
 H    4.910678    2.990373    0.595188
 H    6.781188   -1.066337   -2.609323
 H    7.797128   -0.178039   -1.473389
 H    5.687754   -3.126402   -2.049426
 H    6.787701   -4.317807   -0.658548
 H    4.094429   -4.126218   -0.124756
 H    4.089520   -2.028378   -0.219206
 H    6.500216   -4.597758    1.728005
 H    4.775936   -4.917941    2.047406
 H    5.732912   -4.002065    3.222637
 H    6.543927   -1.754746    2.872995
 H    5.403612   -0.631513    1.432607
 H    8.185236   -2.981641    1.047619
 H    8.043716   -0.854108    0.851813
 H   -4.574725    4.040214    1.931747
 H   -4.849280    4.279159    0.203828
 H   -4.106026    5.543954    1.161932
}
memory 20GB
set_num_threads(6)
psi4_io.set_default_path("/scratch/bdw2292")
set freeze_core True
E, wfn = energy('mp2/6-311++G**',return_wfn=True)
oeprop(wfn,"WIBERG_LOWDIN_INDICES")
clean()
--------------------------------------------------------------------------

    Molecular point group: c1

    Geometry (in Angstrom), charge = 0, multiplicity = 1:

       Center              X                  Y                   Z               Mass
    ------------   -----------------  -----------------  -----------------  -----------------
         C           -8.416852005152    -3.639583158956    -0.630713936603    12.000000000000
         C           -7.062209005152    -3.343266158956    -0.433697936603    12.000000000000
         C           -6.653624005152    -2.009581158956    -0.231255936603    12.000000000000
         C           -7.685394005152    -1.038871158956    -0.243803936603    12.000000000000
         N           -8.985079005152    -1.305186158956    -0.430132936603    14.003074004430
         C           -9.336070005152    -2.585633158956    -0.619812936603    12.000000000000
         C           -5.218424005152    -1.599816158956    -0.013718936603    12.000000000000
         C           -4.129697005152    -2.488254158956     0.014649063397    12.000000000000
         C           -2.873649005152    -1.910759158956     0.225144063397    12.000000000000
         N           -2.668593005152    -0.607459158956     0.393594063397    14.003074004430
         C           -3.768372005152     0.172665841044     0.363958063397    12.000000000000
         N           -5.007964005152    -0.280451158956     0.166329063397    14.003074004430
         N           -3.585324005152     1.529805841044     0.553369063397    14.003074004430
         C           -2.461996005152     2.435336841044     0.472168063397    12.000000000000
         C           -2.685779005152     3.828945841044     0.700639063397    12.000000000000
         C           -1.576895005152     4.685932841044     0.614574063397    12.000000000000
         C           -0.279022005152     4.254805841044     0.322679063397    12.000000000000
         C           -0.066323005152     2.888813841044     0.108309063397    12.000000000000
         C           -1.159249005152     2.008040841044     0.180737063397    12.000000000000
         N            1.198234994848     2.290332841044    -0.203442936603    14.003074004430
         C            2.472298994848     2.811612841044    -0.222824936603    12.000000000000
         C            3.599796994848     1.881707841044    -0.630110936603    12.000000000000
         C            3.448433994848     0.834740841044    -1.554478936603    12.000000000000
         C            4.523560994848    -0.005223158956    -1.853956936603    12.000000000000
         C            5.788361994848     0.179131841044    -1.263861936603    12.000000000000
         C            5.938871994848     1.264628841044    -0.379231936603    12.000000000000
         C            4.870740994848     2.112933841044    -0.077882936603    12.000000000000
         C            6.945037994848    -0.780932158956    -1.550721936603    12.000000000000
         N            7.095374994848    -1.995574158956    -0.731236936603    14.003074004430
         C            6.135511994848    -3.108787158956    -0.910032936603    12.000000000000
         C            4.924981994848    -3.075197158956     0.058929063397    12.000000000000
         N            5.300895994848    -2.973603158956     1.489950063397    14.003074004430
         C            5.669577994848    -4.223607158956     2.164303063397    12.000000000000
         C            6.230628994848    -1.830106158956     1.662421063397    12.000000000000
         C            7.447018994848    -1.852858158956     0.700285063397    12.000000000000
         O            2.718673994848     3.966772841044     0.086304063397    15.994914619570
         C           -4.048617005152     4.418119841044     1.026906063397    12.000000000000
         H           -8.753266005152    -4.659755158956    -0.789596936603     1.007825032230
         H           -6.349138005152    -4.163866158956    -0.444039936603     1.007825032230
         H           -7.448930005152     0.011106841044    -0.096477936603     1.007825032230
         H          -10.400258005152    -2.762261158956    -0.768531936603     1.007825032230
         H           -4.206691005152    -3.560789158956    -0.112457936603     1.007825032230
         H           -1.963274005152    -2.508712158956     0.262425063397     1.007825032230
         H           -4.475830005152     1.951683841044     0.768507063397     1.007825032230
         H           -1.716605005152     5.753632841044     0.779537063397     1.007825032230
         H            0.549532994848     4.950213841044     0.271791063397     1.007825032230
         H           -1.002847005152     0.953268841044     0.015209063397     1.007825032230
         H            1.151674994848     1.288745841044    -0.326142936603     1.007825032230
         H            2.486318994848     0.682352841044    -2.037200936603     1.007825032230
         H            4.366065994848    -0.828094158956    -2.551226936603     1.007825032230
         H            6.901190994848     1.443291841044     0.099322063397     1.007825032230
         H            5.000316994848     2.947249841044     0.607503063397     1.007825032230
         H            6.870826994848    -1.109460158956    -2.597007936603     1.007825032230
         H            7.886766994848    -0.221162158956    -1.461073936603     1.007825032230
         H            5.777392994848    -3.169525158956    -2.037110936603     1.007825032230
         H            6.877339994848    -4.360930158956    -0.646232936603     1.007825032230
         H            4.184067994848    -4.169341158956    -0.112440936603     1.007825032230
         H            4.179158994848    -2.071501158956    -0.206890936603     1.007825032230
         H            6.589854994848    -4.640881158956     1.740320063397     1.007825032230
         H            4.865574994848    -4.961064158956     2.059721063397     1.007825032230
         H            5.822550994848    -4.045188158956     3.234952063397     1.007825032230
         H            6.633565994848    -1.797869158956     2.885310063397     1.007825032230
         H            5.493250994848    -0.674636158956     1.444922063397     1.007825032230
         H            8.274874994848    -3.024764158956     1.059934063397     1.007825032230
         H            8.133354994848    -0.897231158956     0.864128063397     1.007825032230
         H           -4.485086005152     3.997090841044     1.944062063397     1.007825032230
         H           -4.759641005152     4.236035841044     0.216143063397     1.007825032230
         H           -4.016387005152     5.500830841044     1.174247063397     1.007825032230

  Charge       = 0
  Multiplicity = 1
  Basis Set: 6-311++G**
    Blend: 6-311++G**
  Basis Set: (6-311++G** AUX)
    Blend: AUG-CC-PVTZ-JKFIT

    Orbital Energies [Eh]
    ---------------------

    Doubly Occupied:

       1A    -20.525030     2A    -15.605119     3A    -15.601452
       4A    -15.576944     5A    -15.572448     6A    -15.571590
       7A    -15.568427     8A    -15.557246     9A    -11.373224
      10A    -11.368734    11A    -11.333321    12A    -11.313747
      13A    -11.313621    14A    -11.311066    15A    -11.308807
      16A    -11.305000    17A    -11.303573    18A    -11.293366
      19A    -11.293311    20A    -11.291499    21A    -11.283368
      22A    -11.282217    23A    -11.273663    24A    -11.264481
      25A    -11.263355    26A    -11.263098    27A    -11.258557
      28A    -11.255690    29A    -11.254534    30A    -11.251783
      31A    -11.250775    32A    -11.248559    33A    -11.246667
      34A    -11.238980    35A    -11.233765    36A    -11.230692
      37A    -11.223960    38A     -1.390441    39A     -1.343230
      40A     -1.269536    41A     -1.252199    42A     -1.248245
      43A     -1.240526    44A     -1.207342    45A     -1.202316
      46A     -1.168423    47A     -1.140506    48A     -1.109977
      49A     -1.072453    50A     -1.063442    51A     -1.043259
      52A     -1.037698    53A     -1.031123    54A     -1.007368
      55A     -0.995152    56A     -0.980574    57A     -0.947984
      58A     -0.930907    59A     -0.920442    60A     -0.901469
      61A     -0.868924    62A     -0.865844    63A     -0.856166
      64A     -0.848299    65A     -0.834806    66A     -0.829353
      67A     -0.823599    68A     -0.808132    69A     -0.778260
      70A     -0.753212    71A     -0.738334    72A     -0.733988
      73A     -0.717613    74A     -0.705652    75A     -0.699680
      76A     -0.678936    77A     -0.674705    78A     -0.665713
      79A     -0.660751    80A     -0.652890    81A     -0.650073
      82A     -0.645320    83A     -0.638150    84A     -0.633803
      85A     -0.623495    86A     -0.617991    87A     -0.613478
      88A     -0.609866    89A     -0.607313    90A     -0.602531
      91A     -0.600248    92A     -0.593321    93A     -0.590836
      94A     -0.585046    95A     -0.583932    96A     -0.582486
      97A     -0.582009    98A     -0.579058    99A     -0.568041
     100A     -0.554007   101A     -0.548106   102A     -0.537726
     103A     -0.533909   104A     -0.530760   105A     -0.528644
     106A     -0.524178   107A     -0.513563   108A     -0.512918
     109A     -0.510980   110A     -0.508591   111A     -0.507952
     112A     -0.501052   113A     -0.483210   114A     -0.481263
     115A     -0.457760   116A     -0.448402   117A     -0.440456
     118A     -0.433424   119A     -0.431673   120A     -0.427300
     121A     -0.415966   122A     -0.411181   123A     -0.394761
     124A     -0.385761   125A     -0.372098   126A     -0.352515
     127A     -0.348487   128A     -0.339517   129A     -0.317912
     130A     -0.314270   131A     -0.288997

  @DF-RHF Final Energy: -1572.37068949727995

   => Energetics <=

    Nuclear Repulsion Energy =           3529.3979295297122007
    One-Electron Energy =               -9156.9863042990073154
    Two-Electron Energy =                4055.2176852720153875
    Total Energy =                      -1572.3706894972797272

  Dipole Moment: [D]
     X:    -0.6603      Y:    -5.9134      Z:    -1.0447     Total:     6.0412

  Basis Set: (6-311++G** AUX)
    Blend: AUG-CC-PVTZ-RI
	 Reference Energy          =   -1572.3706894972799546 [Eh]
	 Singles Energy            =      -0.0000000000000000 [Eh]
	 Same-Spin Energy          =      -1.4680002437824728 [Eh]
	 Opposite-Spin Energy      =      -4.0434294820952248 [Eh]
	 Correlation Energy        =      -5.5114297258776972 [Eh]
	 Total Energy              =   -1577.8821192231575878 [Eh]

	 ================> DF-SCS-MP2 Energies <==================
	-----------------------------------------------------------
	 SCS Same-Spin Scale       =       0.3333333333333333 [-]
	 SCS Opposite-Spin Scale   =       1.2000000000000000 [-]
	 SCS Same-Spin Energy      =      -0.4893334145941576 [Eh]
	 SCS Opposite-Spin Energy  =      -4.8521153785142692 [Eh]
	 SCS Correlation Energy    =      -5.3414487931084267 [Eh]
	 SCS Total Energy          =   -1577.7121382903883386 [Eh]
	-----------------------------------------------------------

*** Psi4 exiting successfully. Buy a developer a beer!
