                               Psi4 1.3.2 release

  ==> Input File <==

--------------------------------------------------------------------------
molecule {
0 1
 C    0.318838    4.673251   -1.813869
 C    1.644712    4.540578   -1.379567
 C    2.179572    3.260350   -1.137176
 C    1.309932    2.170510   -1.388909
 N    0.041977    2.276360   -1.806914
 C   -0.439504    3.512942   -2.007649
 C    3.589557    3.015109   -0.660965
 C    4.592130    3.992166   -0.547339
 C    5.847288    3.532377   -0.129960
 N    6.123043    2.263545    0.165210
 C    5.096597    1.397154    0.048961
 N    3.868298    1.737671   -0.343963
 N    5.386133    0.082432    0.370383
 C    4.621975   -1.139772    0.315064
 C    5.295901   -2.397375    0.372836
 C    4.507553   -3.556579    0.273716
 C    3.114596   -3.546911    0.133770
 C    2.460097   -2.310852    0.124349
 C    3.225167   -1.136911    0.208913
 N    1.047620   -2.112149    0.003554
 C    0.019089   -2.983408   -0.273577
 C   -1.327452   -2.360738   -0.593005
 C   -1.472232   -1.157045   -1.304220
 C   -2.736864   -0.596687   -1.495892
 C   -3.901192   -1.227633   -1.017807
 C   -3.745367   -2.462240   -0.357671
 C   -2.483867   -3.028724   -0.158165
 C   -5.272305   -0.560816   -1.158590
 N   -5.717400    0.451813   -0.178200
 C   -4.737129    1.069558    0.745398
 C   -4.573461    0.297232    2.080912
 N   -5.848283    0.042976    2.798083
 C   -6.342325    1.129789    3.651888
 C   -6.829268   -0.556484    1.859216
 C   -6.995279    0.229491    0.534111
 O    0.155716   -4.196648   -0.251184
 C    6.803973   -2.528707    0.503867
 H   -0.116737    5.650660   -1.999002
 H    2.232708    5.441218   -1.220537
 H    1.661272    1.150092   -1.272357
 H   -1.473615    3.563278   -2.345454
 H    4.458145    5.040152   -0.785593
 H    6.698621    4.204360   -0.024342
 H    6.363564    0.004352    0.607426
 H    4.993912   -4.530869    0.297498
 H    2.543836   -4.463393    0.048952
 H    2.722251   -0.184383    0.207774
 H    0.762880   -1.144633    0.064999
 H   -0.592095   -0.638652   -1.677585
 H   -2.807909    0.363241   -2.007451
 H   -4.619583   -2.984823    0.029789
 H   -2.375792   -3.977925    0.361023
 H   -5.324358   -0.073212   -2.142302
 H   -6.020554   -1.365644   -1.149557
 H   -3.802909    1.221064    0.258913
 H   -5.245886    2.430432    1.080568
 H   -3.743335    0.979523    2.900369
 H   -3.999124   -0.908067    1.843739
 H   -6.613916    2.006287    3.052578
 H   -5.573883    1.420820    4.377440
 H   -7.223764    0.798723    4.213281
 H   -7.908373   -0.679718    2.427531
 H   -6.341966   -1.905051    1.538152
 H   -7.563530    1.499146    0.825312
 H   -7.891690   -0.420451   -0.299403
 H    7.190073   -2.075639    1.428078
 H    7.315455   -2.042720   -0.331761
 H    7.137576   -3.569601    0.510996
}
memory 20GB
set_num_threads(6)
psi4_io.set_default_path("/scratch/bdw2292")
set freeze_core True
E, wfn = energy('mp2/6-311+G*',return_wfn=True)
oeprop(wfn,"WIBERG_LOWDIN_INDICES")
clean()
--------------------------------------------------------------------------

    Molecular point group: c1

    Geometry (in Angstrom), charge = 0, multiplicity = 1:

       Center              X                  Y                   Z               Mass
    ------------   -----------------  -----------------  -----------------  -----------------
         C            0.154745502083     4.633984978854    -1.745237689936    12.000000000000
         C            1.480619502083     4.501311978854    -1.310935689936    12.000000000000
         C            2.015479502083     3.221083978854    -1.068544689936    12.000000000000
         C            1.145839502083     2.131243978854    -1.320277689936    12.000000000000
         N           -0.122115497917     2.237093978854    -1.738282689936    14.003074004430
         C           -0.603596497917     3.473675978854    -1.939017689936    12.000000000000
         C            3.425464502083     2.975842978854    -0.592333689936    12.000000000000
         C            4.428037502083     3.952899978854    -0.478707689936    12.000000000000
         C            5.683195502083     3.493110978854    -0.061328689936    12.000000000000
         N            5.958950502083     2.224278978854     0.233841310064    14.003074004430
         C            4.932504502083     1.357887978854     0.117592310064    12.000000000000
         N            3.704205502083     1.698404978854    -0.275331689936    14.003074004430
         N            5.222040502083     0.043165978854     0.439014310064    14.003074004430
         C            4.457882502083    -1.179038021146     0.383695310064    12.000000000000
         C            5.131808502083    -2.436641021146     0.441467310064    12.000000000000
         C            4.343460502083    -3.595845021146     0.342347310064    12.000000000000
         C            2.950503502083    -3.586177021146     0.202401310064    12.000000000000
         C            2.296004502083    -2.350118021146     0.192980310064    12.000000000000
         C            3.061074502083    -1.176177021146     0.277544310064    12.000000000000
         N            0.883527502083    -2.151415021146     0.072185310064    14.003074004430
         C           -0.145003497917    -3.022674021146    -0.204945689936    12.000000000000
         C           -1.491544497917    -2.400004021146    -0.524373689936    12.000000000000
         C           -1.636324497917    -1.196311021146    -1.235588689936    12.000000000000
         C           -2.900956497917    -0.635953021146    -1.427260689936    12.000000000000
         C           -4.065284497917    -1.266899021146    -0.949175689936    12.000000000000
         C           -3.909459497917    -2.501506021146    -0.289039689936    12.000000000000
         C           -2.647959497917    -3.067990021146    -0.089533689936    12.000000000000
         C           -5.436397497917    -0.600082021146    -1.089958689936    12.000000000000
         N           -5.881492497917     0.412546978854    -0.109568689936    14.003074004430
         C           -4.901221497917     1.030291978854     0.814029310064    12.000000000000
         C           -4.737553497917     0.257965978854     2.149543310064    12.000000000000
         N           -6.012375497917     0.003709978854     2.866714310064    14.003074004430
         C           -6.506417497917     1.090522978854     3.720519310064    12.000000000000
         C           -6.993360497917    -0.595750021146     1.927847310064    12.000000000000
         C           -7.159371497917     0.190224978854     0.602742310064    12.000000000000
         O           -0.008376497917    -4.235914021146    -0.182552689936    15.994914619570
         C            6.639880502083    -2.567973021146     0.572498310064    12.000000000000
         H           -0.280829497917     5.611393978854    -1.930370689936     1.007825032230
         H            2.068615502083     5.401951978854    -1.151905689936     1.007825032230
         H            1.497179502083     1.110825978854    -1.203725689936     1.007825032230
         H           -1.637707497917     3.524011978854    -2.276822689936     1.007825032230
         H            4.294052502083     5.000885978854    -0.716961689936     1.007825032230
         H            6.534528502083     4.165093978854     0.044289310064     1.007825032230
         H            6.199471502083    -0.034914021146     0.676057310064     1.007825032230
         H            4.829819502083    -4.570135021146     0.366129310064     1.007825032230
         H            2.379743502083    -4.502659021146     0.117583310064     1.007825032230
         H            2.558158502083    -0.223649021146     0.276405310064     1.007825032230
         H            0.598787502083    -1.183899021146     0.133630310064     1.007825032230
         H           -0.756187497917    -0.677918021146    -1.608953689936     1.007825032230
         H           -2.972001497917     0.323974978854    -1.938819689936     1.007825032230
         H           -4.783675497917    -3.024089021146     0.098420310064     1.007825032230
         H           -2.539884497917    -4.017191021146     0.429654310064     1.007825032230
         H           -5.488450497917    -0.112478021146    -2.073670689936     1.007825032230
         H           -6.184646497917    -1.404910021146    -1.080925689936     1.007825032230
         H           -3.967001497917     1.181797978854     0.327544310064     1.007825032230
         H           -5.409978497917     2.391165978854     1.149199310064     1.007825032230
         H           -3.907427497917     0.940256978854     2.969000310064     1.007825032230
         H           -4.163216497917    -0.947333021146     1.912370310064     1.007825032230
         H           -6.778008497917     1.967020978854     3.121209310064     1.007825032230
         H           -5.737975497917     1.381553978854     4.446071310064     1.007825032230
         H           -7.387856497917     0.759456978854     4.281912310064     1.007825032230
         H           -8.072465497917    -0.718984021146     2.496162310064     1.007825032230
         H           -6.506058497917    -1.944317021146     1.606783310064     1.007825032230
         H           -7.727622497917     1.459879978854     0.893943310064     1.007825032230
         H           -8.055782497917    -0.459717021146    -0.230771689936     1.007825032230
         H            7.025980502083    -2.114905021146     1.496709310064     1.007825032230
         H            7.151362502083    -2.081986021146    -0.263129689936     1.007825032230
         H            6.973483502083    -3.608867021146     0.579627310064     1.007825032230

  Charge       = 0
  Multiplicity = 1
  Basis Set: 6-311+G*
    Blend: 6-311+G*
  Basis Set: (6-311+G* AUX)
    Blend: HEAVY-AUG-CC-PVTZ-JKFIT

    Orbital Energies [Eh]
    ---------------------

    Doubly Occupied:

       1A    -20.522484     2A    -15.605004     3A    -15.602840
       4A    -15.587457     5A    -15.574043     6A    -15.568795
       7A    -15.564647     8A    -15.559941     9A    -11.375152
      10A    -11.365304    11A    -11.335098    12A    -11.327036
      13A    -11.315184    14A    -11.314797    15A    -11.308964
      16A    -11.302506    17A    -11.302259    18A    -11.301458
      19A    -11.298710    20A    -11.293553    21A    -11.290608
      22A    -11.280961    23A    -11.274165    24A    -11.266764
      25A    -11.260197    26A    -11.258186    27A    -11.254217
      28A    -11.253624    29A    -11.250210    30A    -11.249856
      31A    -11.247502    32A    -11.247159    33A    -11.246568
      34A    -11.240848    35A    -11.234531    36A    -11.231804
      37A    -11.225829    38A     -1.386954    39A     -1.345957
      40A     -1.279371    41A     -1.252482    42A     -1.245274
      43A     -1.242878    44A     -1.210268    45A     -1.199878
      46A     -1.162588    47A     -1.140675    48A     -1.116954
      49A     -1.076234    50A     -1.060392    51A     -1.049184
      52A     -1.038406    53A     -1.024065    54A     -1.008806
      55A     -0.994645    56A     -0.975881    57A     -0.947912
      58A     -0.928520    59A     -0.927291    60A     -0.901803
      61A     -0.873718    62A     -0.867917    63A     -0.859031
      64A     -0.843775    65A     -0.836350    66A     -0.826933
      67A     -0.822903    68A     -0.805037    69A     -0.779091
      70A     -0.755700    71A     -0.740162    72A     -0.731750
      73A     -0.723279    74A     -0.702075    75A     -0.696586
      76A     -0.683947    77A     -0.672124    78A     -0.666263
      79A     -0.660355    80A     -0.657669    81A     -0.653355
      82A     -0.641087    83A     -0.638576    84A     -0.630761
      85A     -0.622477    86A     -0.618328    87A     -0.614431
      88A     -0.608058    89A     -0.606406    90A     -0.603903
      91A     -0.600127    92A     -0.597479    93A     -0.594877
      94A     -0.592730    95A     -0.589714    96A     -0.583729
      97A     -0.581633    98A     -0.574110    99A     -0.564564
     100A     -0.562203   101A     -0.549458   102A     -0.545820
     103A     -0.540711   104A     -0.524729   105A     -0.520880
     106A     -0.515542   107A     -0.514737   108A     -0.509813
     109A     -0.506124   110A     -0.503183   111A     -0.501714
     112A     -0.491609   113A     -0.485441   114A     -0.481072
     115A     -0.458349   116A     -0.452369   117A     -0.443662
     118A     -0.432427   119A     -0.428186   120A     -0.426125
     121A     -0.414793   122A     -0.409889   123A     -0.400859
     124A     -0.382058   125A     -0.374144   126A     -0.346828
     127A     -0.345977   128A     -0.341583   129A     -0.316265
     130A     -0.314243   131A     -0.290491

  @DF-RHF Final Energy: -1572.27603011697897

   => Energetics <=

    Nuclear Repulsion Energy =           3715.8084173281704352
    One-Electron Energy =               -9529.5549627130276349
    Two-Electron Energy =                4241.4705152678779996
    Total Energy =                      -1572.2760301169792001

  Dipole Moment: [D]
     X:     1.0316      Y:     7.2109      Z:    -0.4140     Total:     7.2961

  Basis Set: (6-311+G* AUX)
    Blend: HEAVY-AUG-CC-PVTZ-RI
	 Reference Energy          =   -1572.2760301169789727 [Eh]
	 Singles Energy            =      -0.0000000000000000 [Eh]
	 Same-Spin Energy          =      -1.4485715007933408 [Eh]
	 Opposite-Spin Energy      =      -3.8938927835902377 [Eh]
	 Correlation Energy        =      -5.3424642843835786 [Eh]
	 Total Energy              =   -1577.6184944013625682 [Eh]

	 ================> DF-SCS-MP2 Energies <==================
	-----------------------------------------------------------
	 SCS Same-Spin Scale       =       0.3333333333333333 [-]
	 SCS Opposite-Spin Scale   =       1.2000000000000000 [-]
	 SCS Same-Spin Energy      =      -0.4828571669311136 [Eh]
	 SCS Opposite-Spin Energy  =      -4.6726713403082849 [Eh]
	 SCS Correlation Energy    =      -5.1555285072393984 [Eh]
	 SCS Total Energy          =   -1577.4315586242182690 [Eh]
	-----------------------------------------------------------

*** Psi4 exiting successfully. Buy a developer a beer!
