                               Psi4 1.3.2 release

  ==> Input File <==

--------------------------------------------------------------------------
molecule {
0 1
 C    0.459597    5.403458    0.824120
 C    1.604341    4.925122    0.173427
 C    2.158231    3.683488    0.543909
 C    1.497749    2.999613    1.594384
 N    0.404215    3.443617    2.227285
 C   -0.101819    4.623968    1.841188
 C    3.371439    3.077930   -0.115182
 C    4.114867    3.679702   -1.146336
 C    5.195746    2.939495   -1.640944
 N    5.541545    1.734086   -1.196447
 C    4.769443    1.239677   -0.211025
 N    3.720830    1.856483    0.331903
 N    5.122780   -0.001842    0.240899
 C    4.402676   -1.239081    0.270465
 C    5.115046   -2.460658    0.463334
 C    4.363911   -3.646254    0.479745
 C    2.974442   -3.689688    0.323626
 C    2.283454   -2.484452    0.153288
 C    3.009722   -1.281486    0.115774
 N    0.865540   -2.367032   -0.020265
 C   -0.107164   -3.323168   -0.210626
 C   -1.482734   -2.844598   -0.633395
 C   -1.691682   -1.755203   -1.494962
 C   -2.988299   -1.340363   -1.808137
 C   -4.118954   -2.002459   -1.292988
 C   -3.893452   -3.109636   -0.451841
 C   -2.600593   -3.536822   -0.139158
 C   -5.534876   -1.500511   -1.586167
 N   -6.104955   -0.411302   -0.774404
 C   -5.633877    0.976125   -0.988486
 C   -4.474758    1.417487   -0.057552
 N   -4.757652    1.214021    1.383871
 C   -5.552481    2.249623    2.053847
 C   -5.183859   -0.191202    1.596091
 C   -6.339576   -0.649206    0.668790
 O    0.095786   -4.514166   -0.035914
 C    6.623426   -2.528777    0.634279
 H    0.011731    6.354497    0.551036
 H    2.038297    5.529185   -0.619557
 H    1.874791    2.041625    1.942372
 H   -0.992534    4.949725    2.376162
 H    3.901069    4.653545   -1.568321
 H    5.834183    3.316847   -2.439205
 H    6.094700   -0.000976    0.511740
 H    4.876398   -4.597298    0.618514
 H    2.435864   -4.628769    0.337099
 H    2.487794   -0.345009   -0.022196
 H    0.536612   -1.413666   -0.081781
 H   -0.834218   -1.236326   -1.916176
 H   -3.117500   -0.477966   -2.461785
 H   -4.739721   -3.641112   -0.017543
 H   -2.441083   -4.396405    0.507233
 H   -5.572147   -1.167781   -2.633021
 H   -6.226303   -2.350526   -1.493328
 H   -5.326513    1.152972   -2.200532
 H   -6.787737    1.869544   -0.715763
 H   -4.204001    2.707850   -0.263636
 H   -3.475448    0.806244   -0.315016
 H   -6.571108    2.283670    1.651307
 H   -5.085030    3.231791    1.918537
 H   -5.603999    2.048886    3.130243
 H   -5.504329   -0.348592    2.811607
 H   -4.024795   -1.019938    1.349414
 H   -7.541656    0.127145    1.044302
 H   -6.602487   -1.773786    0.858685
 H    6.965130   -2.042911    1.559466
 H    7.137202   -2.038823   -0.197637
 H    6.998118   -3.555088    0.668104
}
memory 20GB
set_num_threads(6)
psi4_io.set_default_path("/scratch/bdw2292")
set freeze_core True
E, wfn = energy('mp2/6-311++G**',return_wfn=True)
oeprop(wfn,"WIBERG_LOWDIN_INDICES")
clean()
--------------------------------------------------------------------------

    Molecular point group: c1

    Geometry (in Angstrom), charge = 0, multiplicity = 1:

       Center              X                  Y                   Z               Mass
    ------------   -----------------  -----------------  -----------------  -----------------
         C            0.334311667535     5.391219324625     0.754026410671    12.000000000000
         C            1.479055667535     4.912883324625     0.103333410671    12.000000000000
         C            2.032945667535     3.671249324625     0.473815410671    12.000000000000
         C            1.372463667535     2.987374324625     1.524290410671    12.000000000000
         N            0.278929667535     3.431378324625     2.157191410671    14.003074004430
         C           -0.227104332465     4.611729324625     1.771094410671    12.000000000000
         C            3.246153667535     3.065691324625    -0.185275589329    12.000000000000
         C            3.989581667535     3.667463324625    -1.216429589329    12.000000000000
         C            5.070460667535     2.927256324625    -1.711037589329    12.000000000000
         N            5.416259667535     1.721847324625    -1.266540589329    14.003074004430
         C            4.644157667535     1.227438324625    -0.281118589329    12.000000000000
         N            3.595544667535     1.844244324625     0.261809410671    14.003074004430
         N            4.997494667535    -0.014080675375     0.170805410671    14.003074004430
         C            4.277390667535    -1.251319675375     0.200371410671    12.000000000000
         C            4.989760667535    -2.472896675375     0.393240410671    12.000000000000
         C            4.238625667535    -3.658492675375     0.409651410671    12.000000000000
         C            2.849156667535    -3.701926675375     0.253532410671    12.000000000000
         C            2.158168667535    -2.496690675375     0.083194410671    12.000000000000
         C            2.884436667535    -1.293724675375     0.045680410671    12.000000000000
         N            0.740254667535    -2.379270675375    -0.090358589329    14.003074004430
         C           -0.232449332465    -3.335406675375    -0.280719589329    12.000000000000
         C           -1.608019332465    -2.856836675375    -0.703488589329    12.000000000000
         C           -1.816967332465    -1.767441675375    -1.565055589329    12.000000000000
         C           -3.113584332465    -1.352601675375    -1.878230589329    12.000000000000
         C           -4.244239332465    -2.014697675375    -1.363081589329    12.000000000000
         C           -4.018737332465    -3.121874675375    -0.521934589329    12.000000000000
         C           -2.725878332465    -3.549060675375    -0.209251589329    12.000000000000
         C           -5.660161332465    -1.512749675375    -1.656260589329    12.000000000000
         N           -6.230240332465    -0.423540675375    -0.844497589329    14.003074004430
         C           -5.759162332465     0.963886324625    -1.058579589329    12.000000000000
         C           -4.600043332465     1.405248324625    -0.127645589329    12.000000000000
         N           -4.882937332465     1.201782324625     1.313777410671    14.003074004430
         C           -5.677766332465     2.237384324625     1.983753410671    12.000000000000
         C           -5.309144332465    -0.203440675375     1.525997410671    12.000000000000
         C           -6.464861332465    -0.661444675375     0.598696410671    12.000000000000
         O           -0.029499332465    -4.526404675375    -0.106007589329    15.994914619570
         C            6.498140667535    -2.541015675375     0.564185410671    12.000000000000
         H           -0.113554332465     6.342258324625     0.480942410671     1.007825032230
         H            1.913011667535     5.516946324625    -0.689650589329     1.007825032230
         H            1.749505667535     2.029386324625     1.872278410671     1.007825032230
         H           -1.117819332465     4.937486324625     2.306068410671     1.007825032230
         H            3.775783667535     4.641306324625    -1.638414589329     1.007825032230
         H            5.708897667535     3.304608324625    -2.509298589329     1.007825032230
         H            5.969414667535    -0.013214675375     0.441646410671     1.007825032230
         H            4.751112667535    -4.609536675375     0.548420410671     1.007825032230
         H            2.310578667535    -4.641007675375     0.267005410671     1.007825032230
         H            2.362508667535    -0.357247675375    -0.092289589329     1.007825032230
         H            0.411326667535    -1.425904675375    -0.151874589329     1.007825032230
         H           -0.959503332465    -1.248564675375    -1.986269589329     1.007825032230
         H           -3.242785332465    -0.490204675375    -2.531878589329     1.007825032230
         H           -4.865006332465    -3.653350675375    -0.087636589329     1.007825032230
         H           -2.566368332465    -4.408643675375     0.437139410671     1.007825032230
         H           -5.697432332465    -1.180019675375    -2.703114589329     1.007825032230
         H           -6.351588332465    -2.362764675375    -1.563421589329     1.007825032230
         H           -5.451798332465     1.140733324625    -2.270625589329     1.007825032230
         H           -6.913022332465     1.857305324625    -0.785856589329     1.007825032230
         H           -4.329286332465     2.695611324625    -0.333729589329     1.007825032230
         H           -3.600733332465     0.794005324625    -0.385109589329     1.007825032230
         H           -6.696393332465     2.271431324625     1.581213410671     1.007825032230
         H           -5.210315332465     3.219552324625     1.848443410671     1.007825032230
         H           -5.729284332465     2.036647324625     3.060149410671     1.007825032230
         H           -5.629614332465    -0.360830675375     2.741513410671     1.007825032230
         H           -4.150080332465    -1.032176675375     1.279320410671     1.007825032230
         H           -7.666941332465     0.114906324625     0.974208410671     1.007825032230
         H           -6.727772332465    -1.786024675375     0.788591410671     1.007825032230
         H            6.839844667535    -2.055149675375     1.489372410671     1.007825032230
         H            7.011916667535    -2.051061675375    -0.267730589329     1.007825032230
         H            6.872832667535    -3.567326675375     0.598010410671     1.007825032230

  Charge       = 0
  Multiplicity = 1
  Basis Set: 6-311++G**
    Blend: 6-311++G**
  Basis Set: (6-311++G** AUX)
    Blend: AUG-CC-PVTZ-JKFIT

    Orbital Energies [Eh]
    ---------------------

    Doubly Occupied:

       1A    -20.523772     2A    -15.603358     3A    -15.582143
       4A    -15.577763     5A    -15.576667     6A    -15.575944
       7A    -15.571573     8A    -15.554737     9A    -11.366875
      10A    -11.366109    11A    -11.332926    12A    -11.319313
      13A    -11.312178    14A    -11.311162    15A    -11.309733
      16A    -11.300122    17A    -11.295892    18A    -11.294331
      19A    -11.293091    20A    -11.292204    21A    -11.284855
      22A    -11.280445    23A    -11.275098    24A    -11.262563
      25A    -11.261488    26A    -11.261126    27A    -11.260213
      28A    -11.259929    29A    -11.254095    30A    -11.252572
      31A    -11.250136    32A    -11.246889    33A    -11.240906
      34A    -11.237064    35A    -11.230489    36A    -11.229873
      37A    -11.219391    38A     -1.388894    39A     -1.346874
      40A     -1.270662    41A     -1.250738    42A     -1.246511
      43A     -1.240257    44A     -1.211861    45A     -1.200429
      46A     -1.166512    47A     -1.137722    48A     -1.111457
      49A     -1.073119    50A     -1.061855    51A     -1.044522
      52A     -1.036324    53A     -1.029255    54A     -1.004706
      55A     -0.993232    56A     -0.978943    57A     -0.945418
      58A     -0.928907    59A     -0.923886    60A     -0.899874
      61A     -0.867129    62A     -0.866511    63A     -0.854304
      64A     -0.846509    65A     -0.835909    66A     -0.826580
      67A     -0.822377    68A     -0.807326    69A     -0.778840
      70A     -0.752368    71A     -0.737753    72A     -0.730800
      73A     -0.717016    74A     -0.711844    75A     -0.703158
      76A     -0.681319    77A     -0.674052    78A     -0.666180
      79A     -0.661649    80A     -0.654835    81A     -0.650632
      82A     -0.641889    83A     -0.637439    84A     -0.636122
      85A     -0.623641    86A     -0.617055    87A     -0.610208
      88A     -0.607570    89A     -0.606632    90A     -0.600540
      91A     -0.599041    92A     -0.590978    93A     -0.587897
      94A     -0.587358    95A     -0.582487    96A     -0.579095
      97A     -0.578734    98A     -0.575543    99A     -0.566493
     100A     -0.550984   101A     -0.544871   102A     -0.539630
     103A     -0.533153   104A     -0.528407   105A     -0.526541
     106A     -0.521391   107A     -0.511693   108A     -0.508184
     109A     -0.507090   110A     -0.505973   111A     -0.503332
     112A     -0.498947   113A     -0.486551   114A     -0.471507
     115A     -0.455080   116A     -0.449274   117A     -0.438741
     118A     -0.435710   119A     -0.429362   120A     -0.420516
     121A     -0.414840   122A     -0.412624   123A     -0.397535
     124A     -0.383328   125A     -0.377517   126A     -0.350632
     127A     -0.346806   128A     -0.341008   129A     -0.316244
     130A     -0.314272   131A     -0.287593

  @DF-RHF Final Energy: -1572.35161688806875

   => Energetics <=

    Nuclear Repulsion Energy =           3698.7400570485247044
    One-Electron Energy =               -9495.8950900335312326
    Two-Electron Energy =                4224.8034160969382356
    Total Energy =                      -1572.3516168880687474

  Dipole Moment: [D]
     X:     0.1849      Y:     6.4736      Z:    -2.2946     Total:     6.8708

  Basis Set: (6-311++G** AUX)
    Blend: AUG-CC-PVTZ-RI
	 Reference Energy          =   -1572.3516168880687474 [Eh]
	 Singles Energy            =      -0.0000000000000000 [Eh]
	 Same-Spin Energy          =      -1.4697687018570220 [Eh]
	 Opposite-Spin Energy      =      -4.0456290186110779 [Eh]
	 Correlation Energy        =      -5.5153977204680995 [Eh]
	 Total Energy              =   -1577.8670146085369197 [Eh]

	 ================> DF-SCS-MP2 Energies <==================
	-----------------------------------------------------------
	 SCS Same-Spin Scale       =       0.3333333333333333 [-]
	 SCS Opposite-Spin Scale   =       1.2000000000000000 [-]
	 SCS Same-Spin Energy      =      -0.4899229006190073 [Eh]
	 SCS Opposite-Spin Energy  =      -4.8547548223332937 [Eh]
	 SCS Correlation Energy    =      -5.3446777229523015 [Eh]
	 SCS Total Energy          =   -1577.6962946110211305 [Eh]
	-----------------------------------------------------------

*** Psi4 exiting successfully. Buy a developer a beer!
