                               Psi4 1.3.2 release

  ==> Input File <==

--------------------------------------------------------------------------
molecule {
0 1
 C    5.063362    1.329108    2.977175
 C    4.801788    0.045151    2.480165
 C    3.999700   -0.117479    1.332523
 C    3.517777    1.078669    0.746495
 N    3.758099    2.313343    1.204663
 C    4.517288    2.427664    2.304466
 C    3.648765   -1.462581    0.745123
 C    4.098908   -2.700732    1.231804
 C    3.638235   -3.827484    0.543482
 N    2.818389   -3.785772   -0.501788
 C    2.427684   -2.555087   -0.895716
 N    2.818759   -1.416106   -0.316415
 N    1.562774   -2.535967   -1.978229
 C    0.926847   -1.487193   -2.733576
 C    0.310017   -1.807347   -3.982492
 C   -0.335531   -0.764296   -4.667716
 C   -0.411495    0.550550   -4.194736
 C    0.199617    0.842996   -2.972230
 C    0.844027   -0.174054   -2.253784
 N    0.206722    2.114093   -2.352910
 C   -0.810413    3.021192   -2.230116
 C   -1.698330    2.785500   -1.028600
 C   -1.169664    2.488005    0.237844
 C   -2.022231    2.234929    1.313712
 C   -3.421535    2.271291    1.165299
 C   -3.935470    2.587545   -0.107403
 C   -3.090872    2.854055   -1.187802
 C   -4.342390    1.912223    2.332119
 N   -4.642368    0.490240    2.581715
 C   -3.606622   -0.367164    3.200302
 C   -2.748816   -1.171521    2.189776
 N   -3.539965   -1.979389    1.232531
 C   -4.019985   -3.281995    1.708642
 C   -4.543646   -1.104666    0.578086
 C   -5.403138   -0.268478    1.562606
 O   -0.996029    3.937489   -3.010806
 C    0.309336   -3.202288   -4.585511
 H    5.672612    1.475858    3.864008
 H    5.222237   -0.805361    3.010788
 H    2.911137    1.034950   -0.150923
 H    4.695184    3.442703    2.656264
 H    4.763201   -2.816953    2.079138
 H    3.945215   -4.825441    0.854663
 H    1.417753   -3.479158   -2.306005
 H   -0.819820   -0.974160   -5.620814
 H   -0.920262    1.327621   -4.753761
 H    1.279398    0.049899   -1.292851
 H    1.101450    2.478395   -2.055804
 H   -0.091638    2.443642    0.371296
 H   -1.582842    1.986892    2.279894
 H   -5.012923    2.614281   -0.268497
 H   -3.492821    3.091795   -2.169566
 H   -3.910351    2.316700    3.258981
 H   -5.307254    2.418660    2.184393
 H   -3.018954    0.185446    3.884606
 H   -4.372861   -1.457218    4.051456
 H   -1.885812   -2.088364    2.979014
 H   -2.044656   -0.458185    1.567002
 H   -4.747861   -3.161620    2.518827
 H   -3.180078   -3.884139    2.073283
 H   -4.494600   -3.831486    0.887629
 H   -5.170106   -1.705703   -0.099742
 H   -3.770676   -0.125882   -0.274498
 H   -6.285942   -1.317760    2.337219
 H   -6.115946    0.414399    1.012862
 H   -0.266713   -3.904062   -3.965838
 H    1.328442   -3.603375   -4.678974
 H   -0.131617   -3.235350   -5.591410
}
memory 20GB
set_num_threads(6)
psi4_io.set_default_path("/scratch/bdw2292")
set freeze_core True
E, wfn = energy('mp2/6-311++G**',return_wfn=True)
oeprop(wfn,"WIBERG_LOWDIN_INDICES")
clean()
--------------------------------------------------------------------------

    Molecular point group: c1

    Geometry (in Angstrom), charge = 0, multiplicity = 1:

       Center              X                  Y                   Z               Mass
    ------------   -----------------  -----------------  -----------------  -----------------
         C            5.160279310637     1.319198117247     3.162786480613    12.000000000000
         C            4.898705310637     0.035241117247     2.665776480613    12.000000000000
         C            4.096617310637    -0.127388882753     1.518134480613    12.000000000000
         C            3.614694310637     1.068759117247     0.932106480613    12.000000000000
         N            3.855016310637     2.303433117247     1.390274480613    14.003074004430
         C            4.614205310637     2.417754117247     2.490077480613    12.000000000000
         C            3.745682310637    -1.472490882753     0.930734480613    12.000000000000
         C            4.195825310637    -2.710641882753     1.417415480613    12.000000000000
         C            3.735152310637    -3.837393882753     0.729093480613    12.000000000000
         N            2.915306310637    -3.795681882753    -0.316176519387    14.003074004430
         C            2.524601310637    -2.564996882753    -0.710104519387    12.000000000000
         N            2.915676310637    -1.426015882753    -0.130803519387    14.003074004430
         N            1.659691310637    -2.545876882753    -1.792617519387    14.003074004430
         C            1.023764310637    -1.497102882753    -2.547964519387    12.000000000000
         C            0.406934310637    -1.817256882753    -3.796880519387    12.000000000000
         C           -0.238613689363    -0.774205882753    -4.482104519387    12.000000000000
         C           -0.314577689363     0.540640117247    -4.009124519387    12.000000000000
         C            0.296534310637     0.833086117247    -2.786618519387    12.000000000000
         C            0.940944310637    -0.183963882753    -2.068172519387    12.000000000000
         N            0.303639310637     2.104183117247    -2.167298519387    14.003074004430
         C           -0.713495689363     3.011282117247    -2.044504519387    12.000000000000
         C           -1.601412689363     2.775590117247    -0.842988519387    12.000000000000
         C           -1.072746689363     2.478095117247     0.423455480613    12.000000000000
         C           -1.925313689363     2.225019117247     1.499323480613    12.000000000000
         C           -3.324617689363     2.261381117247     1.350910480613    12.000000000000
         C           -3.838552689363     2.577635117247     0.078208480613    12.000000000000
         C           -2.993954689363     2.844145117247    -1.002190519387    12.000000000000
         C           -4.245472689363     1.902313117247     2.517730480613    12.000000000000
         N           -4.545450689363     0.480330117247     2.767326480613    14.003074004430
         C           -3.509704689363    -0.377073882753     3.385913480613    12.000000000000
         C           -2.651898689363    -1.181430882753     2.375387480613    12.000000000000
         N           -3.443047689363    -1.989298882753     1.418142480613    14.003074004430
         C           -3.923067689363    -3.291904882753     1.894253480613    12.000000000000
         C           -4.446728689363    -1.114575882753     0.763697480613    12.000000000000
         C           -5.306220689363    -0.278387882753     1.748217480613    12.000000000000
         O           -0.899111689363     3.927579117247    -2.825194519387    15.994914619570
         C            0.406253310637    -3.212197882753    -4.399899519387    12.000000000000
         H            5.769529310637     1.465948117247     4.049619480613     1.007825032230
         H            5.319154310637    -0.815270882753     3.196399480613     1.007825032230
         H            3.008054310637     1.025040117247     0.034688480613     1.007825032230
         H            4.792101310637     3.432793117247     2.841875480613     1.007825032230
         H            4.860118310637    -2.826862882753     2.264749480613     1.007825032230
         H            4.042132310637    -4.835350882753     1.040274480613     1.007825032230
         H            1.514670310637    -3.489067882753    -2.120393519387     1.007825032230
         H           -0.722902689363    -0.984069882753    -5.435202519387     1.007825032230
         H           -0.823344689363     1.317711117247    -4.568149519387     1.007825032230
         H            1.376315310637     0.039989117247    -1.107239519387     1.007825032230
         H            1.198367310637     2.468485117247    -1.870192519387     1.007825032230
         H            0.005279310637     2.433732117247     0.556907480613     1.007825032230
         H           -1.485924689363     1.976982117247     2.465505480613     1.007825032230
         H           -4.916005689363     2.604371117247    -0.082885519387     1.007825032230
         H           -3.395903689363     3.081885117247    -1.983954519387     1.007825032230
         H           -3.813433689363     2.306790117247     3.444592480613     1.007825032230
         H           -5.210336689363     2.408750117247     2.370004480613     1.007825032230
         H           -2.922036689363     0.175536117247     4.070217480613     1.007825032230
         H           -4.275943689363    -1.467127882753     4.237067480613     1.007825032230
         H           -1.788894689363    -2.098273882753     3.164625480613     1.007825032230
         H           -1.947738689363    -0.468094882753     1.752613480613     1.007825032230
         H           -4.650943689363    -3.171529882753     2.704438480613     1.007825032230
         H           -3.083160689363    -3.894048882753     2.258894480613     1.007825032230
         H           -4.397682689363    -3.841395882753     1.073240480613     1.007825032230
         H           -5.073188689363    -1.715612882753     0.085869480613     1.007825032230
         H           -3.673758689363    -0.135791882753    -0.088886519387     1.007825032230
         H           -6.189024689363    -1.327669882753     2.522830480613     1.007825032230
         H           -6.019028689363     0.404489117247     1.198473480613     1.007825032230
         H           -0.169795689363    -3.913971882753    -3.780226519387     1.007825032230
         H            1.425359310637    -3.613284882753    -4.493362519387     1.007825032230
         H           -0.034699689363    -3.245259882753    -5.405798519387     1.007825032230

  Charge       = 0
  Multiplicity = 1
  Basis Set: 6-311++G**
    Blend: 6-311++G**
  Basis Set: (6-311++G** AUX)
    Blend: AUG-CC-PVTZ-JKFIT

    Orbital Energies [Eh]
    ---------------------

    Doubly Occupied:

       1A    -20.554366     2A    -15.601948     3A    -15.582388
       4A    -15.571914     5A    -15.571733     6A    -15.567573
       7A    -15.563042     8A    -15.553619     9A    -11.373458
      10A    -11.368302    11A    -11.332180    12A    -11.312078
      13A    -11.311591    14A    -11.303647    15A    -11.303059
      16A    -11.300695    17A    -11.298310    18A    -11.297016
      19A    -11.296270    20A    -11.287970    21A    -11.286003
      22A    -11.280526    23A    -11.276847    24A    -11.261995
      25A    -11.257319    26A    -11.254657    27A    -11.253507
      28A    -11.250870    29A    -11.249858    30A    -11.249578
      31A    -11.247719    32A    -11.246696    33A    -11.243063
      34A    -11.242322    35A    -11.236493    36A    -11.230506
      37A    -11.227582    38A     -1.403234    39A     -1.342417
      40A     -1.274391    41A     -1.248938    42A     -1.245927
      43A     -1.239415    44A     -1.207297    45A     -1.199766
      46A     -1.162196    47A     -1.139008    48A     -1.112675
      49A     -1.072805    50A     -1.058604    51A     -1.045901
      52A     -1.037457    53A     -1.025354    54A     -1.008605
      55A     -1.000644    56A     -0.978080    57A     -0.944469
      58A     -0.929095    59A     -0.923459    60A     -0.899209
      61A     -0.869776    62A     -0.867864    63A     -0.855119
      64A     -0.848028    65A     -0.838105    66A     -0.832582
      67A     -0.822629    68A     -0.810147    69A     -0.777690
      70A     -0.750643    71A     -0.741069    72A     -0.725250
      73A     -0.714985    74A     -0.708745    75A     -0.703823
      76A     -0.682344    77A     -0.679620    78A     -0.667894
      79A     -0.666478    80A     -0.655718    81A     -0.653440
      82A     -0.653042    83A     -0.646074    84A     -0.633686
      85A     -0.623544    86A     -0.621179    87A     -0.617023
      88A     -0.613407    89A     -0.607758    90A     -0.604251
      91A     -0.602332    92A     -0.600448    93A     -0.595878
      94A     -0.590816    95A     -0.583314    96A     -0.581734
      97A     -0.578064    98A     -0.573931    99A     -0.558198
     100A     -0.554164   101A     -0.540767   102A     -0.539586
     103A     -0.535479   104A     -0.530773   105A     -0.524960
     106A     -0.522958   107A     -0.514134   108A     -0.509556
     109A     -0.507153   110A     -0.498726   111A     -0.494412
     112A     -0.491665   113A     -0.485132   114A     -0.481876
     115A     -0.456763   116A     -0.449858   117A     -0.442839
     118A     -0.437860   119A     -0.423222   120A     -0.416670
     121A     -0.412127   122A     -0.397094   123A     -0.392799
     124A     -0.378127   125A     -0.372490   126A     -0.344572
     127A     -0.343414   128A     -0.342688   129A     -0.316629
     130A     -0.309260   131A     -0.292743

  @DF-RHF Final Energy: -1572.29518972923279

   => Energetics <=

    Nuclear Repulsion Energy =           3848.0290124213493073
    One-Electron Energy =               -9794.3228898790512176
    Two-Electron Energy =                4373.9986877284691218
    Total Energy =                      -1572.2951897292323338

  Dipole Moment: [D]
     X:     2.6303      Y:    -3.4724      Z:     3.5433     Total:     5.6152

  Basis Set: (6-311++G** AUX)
    Blend: AUG-CC-PVTZ-RI
	 Reference Energy          =   -1572.2951897292327885 [Eh]
	 Singles Energy            =      -0.0000000000000000 [Eh]
	 Same-Spin Energy          =      -1.4701665590342943 [Eh]
	 Opposite-Spin Energy      =      -4.0484062510817163 [Eh]
	 Correlation Energy        =      -5.5185728101160105 [Eh]
	 Total Energy              =   -1577.8137625393487724 [Eh]

	 ================> DF-SCS-MP2 Energies <==================
	-----------------------------------------------------------
	 SCS Same-Spin Scale       =       0.3333333333333333 [-]
	 SCS Opposite-Spin Scale   =       1.2000000000000000 [-]
	 SCS Same-Spin Energy      =      -0.4900555196780981 [Eh]
	 SCS Opposite-Spin Energy  =      -4.8580875012980593 [Eh]
	 SCS Correlation Energy    =      -5.3481430209761571 [Eh]
	 SCS Total Energy          =   -1577.6433327502088559 [Eh]
	-----------------------------------------------------------

*** Psi4 exiting successfully. Buy a developer a beer!
