                               Psi4 1.3.2 release

  ==> Input File <==

--------------------------------------------------------------------------
molecule {
0 1
 C   -1.913342    5.076227   -0.183976
 C   -3.209589    4.564240   -0.335294
 C   -3.437776    3.178762   -0.216009
 C   -2.296672    2.393242    0.082134
 N   -1.051775    2.861560    0.235927
 C   -0.872248    4.183877    0.096669
 C   -4.795405    2.538013   -0.373374
 C   -6.005375    3.220969   -0.574584
 C   -7.147170    2.416801   -0.665669
 N   -7.141732    1.088817   -0.589567
 C   -5.932359    0.514759   -0.418290
 N   -4.786045    1.192483   -0.310256
 N   -5.931308   -0.871579   -0.358861
 C   -4.904548   -1.846649   -0.081826
 C   -5.275874   -3.168705    0.309371
 C   -4.234899   -4.070915    0.587544
 C   -2.875824   -3.746380    0.502583
 C   -2.527568   -2.453761    0.097410
 C   -3.544933   -1.530292   -0.191198
 N   -1.195946   -1.944473   -0.041336
 C    0.020372   -2.475145    0.319212
 C    1.248322   -1.586637    0.232628
 C    1.213639   -0.187029    0.351788
 C    2.389707    0.561195    0.267593
 C    3.650637   -0.048013    0.102175
 C    3.666744   -1.451669   -0.016536
 C    2.495528   -2.209703    0.061182
 C    4.894338    0.846960    0.014197
 N    6.230339    0.304958   -0.310771
 C    7.236210    1.328829   -0.678601
 C    8.624156    0.775767   -1.084064
 N    9.237895   -0.113693   -0.073903
 C    9.973594    0.543174    1.012996
 C    8.239192   -1.127777    0.327321
 C    6.847240   -0.572575    0.720331
 O    0.134075   -3.634520    0.688088
 C   -6.717541   -3.623748    0.459069
 H   -1.713493    6.139339   -0.280008
 H   -4.014589    5.259584   -0.560093
 H   -2.401881    1.324279    0.229911
 H    0.148493    4.541060    0.223628
 H   -6.091899    4.298957   -0.634274
 H   -8.127804    2.870739   -0.806047
 H   -6.879540   -1.212063   -0.415103
 H   -4.480036   -5.084424    0.902241
 H   -2.104472   -4.468899    0.739183
 H   -3.285958   -0.532658   -0.506739
 H   -1.149933   -1.010145   -0.422130
 H    0.266097    0.323092    0.509916
 H    2.315669    1.645342    0.356990
 H    4.597279   -1.986855   -0.191799
 H    2.527891   -3.293594   -0.020471
 H    4.637082    1.589550   -0.757050
 H    5.013299    1.362316    0.980322
 H    6.717288    2.111462   -1.908509
 H    7.425921    2.287463    0.477384
 H    9.292340    1.516779   -1.357399
 H    8.344909   -0.120936   -2.365608
 H    9.300722    1.141616    1.637818
 H   10.748865    1.199686    0.601182
 H   10.468262   -0.206494    1.641177
 H    8.755979   -1.880300    1.414669
 H    8.020778   -2.062225   -0.870206
 H    7.080033    0.296161    2.026454
 H    6.245977   -1.284904    0.965807
 H   -7.255056   -3.576014   -0.498531
 H   -7.264591   -2.996027    1.176811
 H   -6.805889   -4.658720    0.817624
}
memory 20GB
set_num_threads(6)
psi4_io.set_default_path("/scratch/bdw2292")
set freeze_core True
E, wfn = energy('mp2/6-311++G**',return_wfn=True)
oeprop(wfn,"WIBERG_LOWDIN_INDICES")
clean()
--------------------------------------------------------------------------

    Molecular point group: c1

    Geometry (in Angstrom), charge = 0, multiplicity = 1:

       Center              X                  Y                   Z               Mass
    ------------   -----------------  -----------------  -----------------  -----------------
         C           -1.762545998310     5.065657413761    -0.189140760904    12.000000000000
         C           -3.058792998310     4.553670413761    -0.340458760904    12.000000000000
         C           -3.286979998310     3.168192413761    -0.221173760904    12.000000000000
         C           -2.145875998310     2.382672413761     0.076969239096    12.000000000000
         N           -0.900978998310     2.850990413761     0.230762239096    14.003074004430
         C           -0.721451998310     4.173307413761     0.091504239096    12.000000000000
         C           -4.644608998310     2.527443413761    -0.378538760904    12.000000000000
         C           -5.854578998310     3.210399413761    -0.579748760904    12.000000000000
         C           -6.996373998310     2.406231413761    -0.670833760904    12.000000000000
         N           -6.990935998310     1.078247413761    -0.594731760904    14.003074004430
         C           -5.781562998310     0.504189413761    -0.423454760904    12.000000000000
         N           -4.635248998310     1.181913413761    -0.315420760904    14.003074004430
         N           -5.780511998310    -0.882148586239    -0.364025760904    14.003074004430
         C           -4.753751998310    -1.857218586239    -0.086990760904    12.000000000000
         C           -5.125077998310    -3.179274586239     0.304206239096    12.000000000000
         C           -4.084102998310    -4.081484586239     0.582379239096    12.000000000000
         C           -2.725027998310    -3.756949586239     0.497418239096    12.000000000000
         C           -2.376771998310    -2.464330586239     0.092245239096    12.000000000000
         C           -3.394136998310    -1.540861586239    -0.196362760904    12.000000000000
         N           -1.045149998310    -1.955042586239    -0.046500760904    14.003074004430
         C            0.171168001690    -2.485714586239     0.314047239096    12.000000000000
         C            1.399118001690    -1.597206586239     0.227463239096    12.000000000000
         C            1.364435001690    -0.197598586239     0.346623239096    12.000000000000
         C            2.540503001690     0.550625413761     0.262428239096    12.000000000000
         C            3.801433001690    -0.058582586239     0.097010239096    12.000000000000
         C            3.817540001690    -1.462238586239    -0.021700760904    12.000000000000
         C            2.646324001690    -2.220272586239     0.056017239096    12.000000000000
         C            5.045134001690     0.836390413761     0.009032239096    12.000000000000
         N            6.381135001690     0.294388413761    -0.315935760904    14.003074004430
         C            7.387006001690     1.318259413761    -0.683765760904    12.000000000000
         C            8.774952001690     0.765197413761    -1.089228760904    12.000000000000
         N            9.388691001690    -0.124262586239    -0.079067760904    14.003074004430
         C           10.124390001690     0.532604413761     1.007831239096    12.000000000000
         C            8.389988001690    -1.138346586239     0.322156239096    12.000000000000
         C            6.998036001690    -0.583144586239     0.715166239096    12.000000000000
         O            0.284871001690    -3.645089586239     0.682923239096    15.994914619570
         C           -6.566744998310    -3.634317586239     0.453904239096    12.000000000000
         H           -1.562696998310     6.128769413761    -0.285172760904     1.007825032230
         H           -3.863792998310     5.249014413761    -0.565257760904     1.007825032230
         H           -2.251084998310     1.313709413761     0.224746239096     1.007825032230
         H            0.299289001690     4.530490413761     0.218463239096     1.007825032230
         H           -5.941102998310     4.288387413761    -0.639438760904     1.007825032230
         H           -7.977007998310     2.860169413761    -0.811211760904     1.007825032230
         H           -6.728743998310    -1.222632586239    -0.420267760904     1.007825032230
         H           -4.329239998310    -5.094993586239     0.897076239096     1.007825032230
         H           -1.953675998310    -4.479468586239     0.734018239096     1.007825032230
         H           -3.135161998310    -0.543227586239    -0.511903760904     1.007825032230
         H           -0.999136998310    -1.020714586239    -0.427294760904     1.007825032230
         H            0.416893001690     0.312522413761     0.504751239096     1.007825032230
         H            2.466465001690     1.634772413761     0.351825239096     1.007825032230
         H            4.748075001690    -1.997424586239    -0.196963760904     1.007825032230
         H            2.678687001690    -3.304163586239    -0.025635760904     1.007825032230
         H            4.787878001690     1.578980413761    -0.762214760904     1.007825032230
         H            5.164095001690     1.351746413761     0.975157239096     1.007825032230
         H            6.868084001690     2.100892413761    -1.913673760904     1.007825032230
         H            7.576717001690     2.276893413761     0.472219239096     1.007825032230
         H            9.443136001690     1.506209413761    -1.362563760904     1.007825032230
         H            8.495705001690    -0.131505586239    -2.370772760904     1.007825032230
         H            9.451518001690     1.131046413761     1.632653239096     1.007825032230
         H           10.899661001690     1.189116413761     0.596017239096     1.007825032230
         H           10.619058001690    -0.217063586239     1.636012239096     1.007825032230
         H            8.906775001690    -1.890869586239     1.409504239096     1.007825032230
         H            8.171574001690    -2.072794586239    -0.875370760904     1.007825032230
         H            7.230829001690     0.285591413761     2.021289239096     1.007825032230
         H            6.396773001690    -1.295473586239     0.960642239096     1.007825032230
         H           -7.104259998310    -3.586583586239    -0.503695760904     1.007825032230
         H           -7.113794998310    -3.006596586239     1.171646239096     1.007825032230
         H           -6.655092998310    -4.669289586239     0.812459239096     1.007825032230

  Charge       = 0
  Multiplicity = 1
  Basis Set: 6-311++G**
    Blend: 6-311++G**
  Basis Set: (6-311++G** AUX)
    Blend: AUG-CC-PVTZ-JKFIT

    Orbital Energies [Eh]
    ---------------------

    Doubly Occupied:

       1A    -20.517924     2A    -15.603506     3A    -15.600348
       4A    -15.594576     5A    -15.587732     6A    -15.574385
       7A    -15.572977     8A    -15.569198     9A    -11.375512
      10A    -11.362161    11A    -11.352213    12A    -11.340951
      13A    -11.334678    14A    -11.314306    15A    -11.312437
      16A    -11.305865    17A    -11.301761    18A    -11.301006
      19A    -11.300650    20A    -11.292123    21A    -11.289818
      22A    -11.280826    23A    -11.280465    24A    -11.267070
      25A    -11.266021    26A    -11.258546    27A    -11.253604
      28A    -11.252667    29A    -11.252441    30A    -11.247197
      31A    -11.246479    32A    -11.244769    33A    -11.242312
      34A    -11.238977    35A    -11.234956    36A    -11.230305
      37A    -11.223853    38A     -1.384198    39A     -1.344412
      40A     -1.279114    41A     -1.259192    42A     -1.249591
      43A     -1.240434    44A     -1.216409    45A     -1.209791
      46A     -1.160872    47A     -1.138950    48A     -1.116044
      49A     -1.075481    50A     -1.060511    51A     -1.048907
      52A     -1.038250    53A     -1.020863    54A     -1.010143
      55A     -1.007206    56A     -0.986762    57A     -0.947563
      58A     -0.930699    59A     -0.926667    60A     -0.900891
      61A     -0.879954    62A     -0.872847    63A     -0.858388
      64A     -0.851506    65A     -0.843500    66A     -0.827894
      67A     -0.818751    68A     -0.805450    69A     -0.777007
      70A     -0.753935    71A     -0.739138    72A     -0.730409
      73A     -0.721828    74A     -0.704562    75A     -0.697916
      76A     -0.683134    77A     -0.679963    78A     -0.669086
      79A     -0.659099    80A     -0.653786    81A     -0.651679
      82A     -0.651096    83A     -0.642183    84A     -0.632113
      85A     -0.630489    86A     -0.622690    87A     -0.619260
      88A     -0.614144    89A     -0.609526    90A     -0.605149
      91A     -0.601834    92A     -0.600601    93A     -0.595659
      94A     -0.590231    95A     -0.585948    96A     -0.581825
      97A     -0.578806    98A     -0.574572    99A     -0.561845
     100A     -0.559883   101A     -0.547886   102A     -0.546436
     103A     -0.544648   104A     -0.536085   105A     -0.522672
     106A     -0.513661   107A     -0.508741   108A     -0.506595
     109A     -0.504184   110A     -0.499834   111A     -0.495157
     112A     -0.490646   113A     -0.484443   114A     -0.477839
     115A     -0.465266   116A     -0.452140   117A     -0.443424
     118A     -0.432689   119A     -0.426046   120A     -0.424326
     121A     -0.414780   122A     -0.400587   123A     -0.385271
     124A     -0.373629   125A     -0.367661   126A     -0.346366
     127A     -0.343111   128A     -0.342976   129A     -0.333729
     130A     -0.313662   131A     -0.289572

  @DF-RHF Final Energy: -1572.21210210056392

   => Energetics <=

    Nuclear Repulsion Energy =           3578.9061032178674395
    One-Electron Energy =               -9255.3377944655567262
    Two-Electron Energy =                4104.2195891471255891
    Total Energy =                      -1572.2121021005641524

  Dipole Moment: [D]
     X:    -2.2428      Y:     7.5104      Z:    -0.3570     Total:     7.8462

  Basis Set: (6-311++G** AUX)
    Blend: AUG-CC-PVTZ-RI
	 Reference Energy          =   -1572.2121021005639250 [Eh]
	 Singles Energy            =      -0.0000000000000000 [Eh]
	 Same-Spin Energy          =      -1.4699153131821805 [Eh]
	 Opposite-Spin Energy      =      -4.0531390543028749 [Eh]
	 Correlation Energy        =      -5.5230543674850558 [Eh]
	 Total Energy              =   -1577.7351564680488991 [Eh]

	 ================> DF-SCS-MP2 Energies <==================
	-----------------------------------------------------------
	 SCS Same-Spin Scale       =       0.3333333333333333 [-]
	 SCS Opposite-Spin Scale   =       1.2000000000000000 [-]
	 SCS Same-Spin Energy      =      -0.4899717710607268 [Eh]
	 SCS Opposite-Spin Energy  =      -4.8637668651634494 [Eh]
	 SCS Correlation Energy    =      -5.3537386362241763 [Eh]
	 SCS Total Energy          =   -1577.5658407367880045 [Eh]
	-----------------------------------------------------------

*** Psi4 exiting successfully. Buy a developer a beer!
