                               Psi4 1.3.2 release

  ==> Input File <==

--------------------------------------------------------------------------
molecule {
0 1
 C   -0.401932    4.251400    1.021036
 C    0.995515    4.157856    1.090569
 C    1.635275    2.945471    0.765852
 C    0.777244    1.897459    0.350382
 N   -0.556304    1.964580    0.274165
 C   -1.133080    3.127323    0.617495
 C    3.127015    2.729684    0.860469
 C    4.077197    3.699979    1.216353
 C    5.406126    3.261604    1.256924
 N    5.800142    2.016848    0.999826
 C    4.819140    1.147478    0.678922
 N    3.526133    1.470539    0.596344
 N    5.223117   -0.159207    0.430853
 C    4.514600   -1.340735   -0.002990
 C    5.238268   -2.459066   -0.517081
 C    4.487856   -3.577183   -0.924452
 C    3.089548   -3.649937   -0.864904
 C    2.400488   -2.542549   -0.363741
 C    3.120354   -1.421251    0.068780
 N    0.992575   -2.390858   -0.261611
 C    0.014262   -3.217075    0.230221
 C   -1.421156   -2.831036   -0.072372
 C   -1.821166   -2.233767   -1.279436
 C   -3.154133   -1.870053   -1.482701
 C   -4.134917   -2.101480   -0.500327
 C   -3.720389   -2.705696    0.702575
 C   -2.393338   -3.090578    0.906849
 C   -5.584064   -1.658299   -0.706149
 N   -5.985857   -0.269462   -0.420229
 C   -5.596908    0.803883   -1.365275
 C   -4.361089    1.648810   -0.963409
 N   -4.395765    2.195781    0.411217
 C   -5.219719    3.393935    0.620278
 C   -4.653588    1.066644    1.338200
 C   -5.900864    0.218776    0.975643
 O    0.263637   -4.205994    0.897410
 C    6.751864   -2.484324   -0.640035
 H   -0.917625    5.169544    1.285505
 H    1.555014    5.028644    1.423448
 H    1.194116    0.942714    0.055695
 H   -2.219587    3.154447    0.568067
 H    3.834034    4.729696    1.446918
 H    6.203617    3.955865    1.519743
 H    6.227461   -0.226030    0.501193
 H    5.008900   -4.447961   -1.320761
 H    2.549377   -4.527713   -1.197342
 H    2.579593   -0.582145    0.472657
 H    0.660628   -1.541760   -0.699139
 H   -1.082651   -2.051367   -2.056166
 H   -3.429226   -1.395463   -2.424607
 H   -4.443027   -2.894346    1.495909
 H   -2.082766   -3.563437    1.835313
 H   -5.854551   -1.851243   -1.754685
 H   -6.225195   -2.297804   -0.081902
 H   -5.512808    0.417372   -2.366426
 H   -6.803267    1.836651   -1.384150
 H   -4.216727    2.689146   -1.857455
 H   -3.162579    0.793545   -1.055449
 H   -6.279355    3.183216    0.437859
 H   -4.898130    4.194817   -0.055293
 H   -5.104679    3.755683    1.648750
 H   -4.687953    1.428181    2.352404
 H   -3.412255    0.097326    1.223195
 H   -7.125513    1.129854    1.216080
 H   -5.993156   -0.827857    1.843970
 H    7.234618   -2.414962    0.345166
 H    7.119757   -1.645473   -1.247877
 H    7.128865   -3.402594   -1.111283
}
memory 20GB
set_num_threads(6)
psi4_io.set_default_path("/scratch/bdw2292")
set freeze_core True
E, wfn = energy('mp2/6-311++G**',return_wfn=True)
oeprop(wfn,"WIBERG_LOWDIN_INDICES")
clean()
--------------------------------------------------------------------------

    Molecular point group: c1

    Geometry (in Angstrom), charge = 0, multiplicity = 1:

       Center              X                  Y                   Z               Mass
    ------------   -----------------  -----------------  -----------------  -----------------
         C           -0.498801597617     4.301579743819     0.858711774316    12.000000000000
         C            0.898645402383     4.208035743819     0.928244774316    12.000000000000
         C            1.538405402383     2.995650743819     0.603527774316    12.000000000000
         C            0.680374402383     1.947638743819     0.188057774316    12.000000000000
         N           -0.653173597617     2.014759743819     0.111840774316    14.003074004430
         C           -1.229949597617     3.177502743819     0.455170774316    12.000000000000
         C            3.030145402383     2.779863743819     0.698144774316    12.000000000000
         C            3.980327402383     3.750158743819     1.054028774316    12.000000000000
         C            5.309256402383     3.311783743819     1.094599774316    12.000000000000
         N            5.703272402383     2.067027743819     0.837501774316    14.003074004430
         C            4.722270402383     1.197657743819     0.516597774316    12.000000000000
         N            3.429263402383     1.520718743819     0.434019774316    14.003074004430
         N            5.126247402383    -0.109027256181     0.268528774316    14.003074004430
         C            4.417730402383    -1.290555256181    -0.165314225684    12.000000000000
         C            5.141398402383    -2.408886256181    -0.679405225684    12.000000000000
         C            4.390986402383    -3.527003256181    -1.086776225684    12.000000000000
         C            2.992678402383    -3.599757256181    -1.027228225684    12.000000000000
         C            2.303618402383    -2.492369256181    -0.526065225684    12.000000000000
         C            3.023484402383    -1.371071256181    -0.093544225684    12.000000000000
         N            0.895705402383    -2.340678256181    -0.423935225684    14.003074004430
         C           -0.082607597617    -3.166895256181     0.067896774316    12.000000000000
         C           -1.518025597617    -2.780856256181    -0.234696225684    12.000000000000
         C           -1.918035597617    -2.183587256181    -1.441760225684    12.000000000000
         C           -3.251002597617    -1.819873256181    -1.645025225684    12.000000000000
         C           -4.231786597617    -2.051300256181    -0.662651225684    12.000000000000
         C           -3.817258597617    -2.655516256181     0.540250774316    12.000000000000
         C           -2.490207597617    -3.040398256181     0.744524774316    12.000000000000
         C           -5.680933597617    -1.608119256181    -0.868473225684    12.000000000000
         N           -6.082726597617    -0.219282256181    -0.582553225684    14.003074004430
         C           -5.693777597617     0.854062743819    -1.527599225684    12.000000000000
         C           -4.457958597617     1.698989743819    -1.125733225684    12.000000000000
         N           -4.492634597617     2.245960743819     0.248892774316    14.003074004430
         C           -5.316588597617     3.444114743819     0.457953774316    12.000000000000
         C           -4.750457597617     1.116823743819     1.175875774316    12.000000000000
         C           -5.997733597617     0.268955743819     0.813318774316    12.000000000000
         O            0.166767402383    -4.155814256181     0.735085774316    15.994914619570
         C            6.654994402383    -2.434144256181    -0.802359225684    12.000000000000
         H           -1.014494597617     5.219723743819     1.123180774316     1.007825032230
         H            1.458144402383     5.078823743819     1.261123774316     1.007825032230
         H            1.097246402383     0.992893743819    -0.106629225684     1.007825032230
         H           -2.316456597617     3.204626743819     0.405742774316     1.007825032230
         H            3.737164402383     4.779875743819     1.284593774316     1.007825032230
         H            6.106747402383     4.006044743819     1.357418774316     1.007825032230
         H            6.130591402383    -0.175850256181     0.338868774316     1.007825032230
         H            4.912030402383    -4.397781256181    -1.483085225684     1.007825032230
         H            2.452507402383    -4.477533256181    -1.359666225684     1.007825032230
         H            2.482723402383    -0.531965256181     0.310332774316     1.007825032230
         H            0.563758402383    -1.491580256181    -0.861463225684     1.007825032230
         H           -1.179520597617    -2.001187256181    -2.218490225684     1.007825032230
         H           -3.526095597617    -1.345283256181    -2.586931225684     1.007825032230
         H           -4.539896597617    -2.844166256181     1.333584774316     1.007825032230
         H           -2.179635597617    -3.513257256181     1.672988774316     1.007825032230
         H           -5.951420597617    -1.801063256181    -1.917009225684     1.007825032230
         H           -6.322064597617    -2.247624256181    -0.244226225684     1.007825032230
         H           -5.609677597617     0.467551743819    -2.528750225684     1.007825032230
         H           -6.900136597617     1.886830743819    -1.546474225684     1.007825032230
         H           -4.313596597617     2.739325743819    -2.019779225684     1.007825032230
         H           -3.259448597617     0.843724743819    -1.217773225684     1.007825032230
         H           -6.376224597617     3.233395743819     0.275534774316     1.007825032230
         H           -4.994999597617     4.244996743819    -0.217617225684     1.007825032230
         H           -5.201548597617     3.805862743819     1.486425774316     1.007825032230
         H           -4.784822597617     1.478360743819     2.190079774316     1.007825032230
         H           -3.509124597617     0.147505743819     1.060870774316     1.007825032230
         H           -7.222382597617     1.180033743819     1.053755774316     1.007825032230
         H           -6.090025597617    -0.777677256181     1.681645774316     1.007825032230
         H            7.137748402383    -2.364782256181     0.182841774316     1.007825032230
         H            7.022887402383    -1.595293256181    -1.410201225684     1.007825032230
         H            7.031995402383    -3.352414256181    -1.273607225684     1.007825032230

  Charge       = 0
  Multiplicity = 1
  Basis Set: 6-311++G**
    Blend: 6-311++G**
  Basis Set: (6-311++G** AUX)
    Blend: AUG-CC-PVTZ-JKFIT

    Orbital Energies [Eh]
    ---------------------

    Doubly Occupied:

       1A    -20.517490     2A    -15.601151     3A    -15.592287
       4A    -15.579467     5A    -15.571657     6A    -15.569809
       7A    -15.569644     8A    -15.562979     9A    -11.371177
      10A    -11.360610    11A    -11.337406    12A    -11.328438
      13A    -11.325202    14A    -11.315725    15A    -11.309422
      16A    -11.306398    17A    -11.299078    18A    -11.288291
      19A    -11.284873    20A    -11.281777    21A    -11.281542
      22A    -11.278505    23A    -11.268865    24A    -11.258684
      25A    -11.257822    26A    -11.257670    27A    -11.256510
      28A    -11.251719    29A    -11.251719    30A    -11.249951
      31A    -11.249358    32A    -11.246966    33A    -11.246932
      34A    -11.241822    35A    -11.236873    36A    -11.233193
      37A    -11.227245    38A     -1.383360    39A     -1.339448
      40A     -1.264412    41A     -1.252832    42A     -1.249387
      43A     -1.237452    44A     -1.210750    45A     -1.204155
      46A     -1.163517    47A     -1.139103    48A     -1.105456
      49A     -1.068314    50A     -1.059931    51A     -1.039567
      52A     -1.036586    53A     -1.025650    54A     -1.007864
      55A     -0.999129    56A     -0.982372    57A     -0.948794
      58A     -0.932058    59A     -0.917589    60A     -0.895360
      61A     -0.870751    62A     -0.862543    63A     -0.851548
      64A     -0.848692    65A     -0.839719    66A     -0.830265
      67A     -0.820928    68A     -0.805007    69A     -0.777729
      70A     -0.746812    71A     -0.738623    72A     -0.727172
      73A     -0.714463    74A     -0.700160    75A     -0.692860
      76A     -0.678341    77A     -0.676015    78A     -0.659968
      79A     -0.658976    80A     -0.654004    81A     -0.650823
      82A     -0.647844    83A     -0.636799    84A     -0.631115
      85A     -0.624940    86A     -0.622449    87A     -0.616604
      88A     -0.614041    89A     -0.610717    90A     -0.602212
      91A     -0.597989    92A     -0.595667    93A     -0.594204
      94A     -0.583657    95A     -0.582985    96A     -0.578770
      97A     -0.576432    98A     -0.574573    99A     -0.562474
     100A     -0.549673   101A     -0.547554   102A     -0.535154
     103A     -0.531874   104A     -0.527384   105A     -0.520110
     106A     -0.516536   107A     -0.513625   108A     -0.507748
     109A     -0.505391   110A     -0.501793   111A     -0.498832
     112A     -0.491314   113A     -0.480761   114A     -0.474556
     115A     -0.467913   116A     -0.444733   117A     -0.431155
     118A     -0.428762   119A     -0.422814   120A     -0.414210
     121A     -0.407604   122A     -0.390535   123A     -0.387980
     124A     -0.382390   125A     -0.367785   126A     -0.347739
     127A     -0.343566   128A     -0.336559   129A     -0.320370
     130A     -0.316200   131A     -0.293846

  @DF-RHF Final Energy: -1572.25600969044149

   => Energetics <=

    Nuclear Repulsion Energy =           3802.0257475280918698
    One-Electron Energy =               -9702.5701830169273308
    Two-Electron Energy =                4328.2884257983932912
    Total Energy =                      -1572.2560096904417151

  Dipole Moment: [D]
     X:     0.0067      Y:     5.6413      Z:    -1.2403     Total:     5.7760

  Basis Set: (6-311++G** AUX)
    Blend: AUG-CC-PVTZ-RI
	 Reference Energy          =   -1572.2560096904414877 [Eh]
	 Singles Energy            =      -0.0000000000000000 [Eh]
	 Same-Spin Energy          =      -1.4752942106496330 [Eh]
	 Opposite-Spin Energy      =      -4.0586222592680548 [Eh]
	 Correlation Energy        =      -5.5339164699176875 [Eh]
	 Total Energy              =   -1577.7899261603590730 [Eh]

	 ================> DF-SCS-MP2 Energies <==================
	-----------------------------------------------------------
	 SCS Same-Spin Scale       =       0.3333333333333333 [-]
	 SCS Opposite-Spin Scale   =       1.2000000000000000 [-]
	 SCS Same-Spin Energy      =      -0.4917647368832110 [Eh]
	 SCS Opposite-Spin Energy  =      -4.8703467111216652 [Eh]
	 SCS Correlation Energy    =      -5.3621114480048764 [Eh]
	 SCS Total Energy          =   -1577.6181211384464405 [Eh]
	-----------------------------------------------------------

*** Psi4 exiting successfully. Buy a developer a beer!
