                               Psi4 1.3.2 release

  ==> Input File <==

--------------------------------------------------------------------------
molecule {
0 1
 C   -0.403134    4.236095    1.076176
 C    0.994724    4.152361    1.146365
 C    1.646842    2.972217    0.739672
 C    0.809170    1.954244    0.221504
 N   -0.524386    2.016998    0.140685
 C   -1.117322    3.139618    0.577330
 C    3.135062    2.749769    0.846289
 C    4.086540    3.719871    1.200835
 C    5.416734    3.282400    1.241674
 N    5.808095    2.033686    0.990848
 C    4.826063    1.164381    0.677904
 N    3.536903    1.491165    0.593182
 N    5.223029   -0.142133    0.440557
 C    4.509683   -1.324129    0.017598
 C    5.228814   -2.449959   -0.488216
 C    4.478594   -3.568401   -0.894136
 C    3.079815   -3.633851   -0.852848
 C    2.391568   -2.526522   -0.350878
 C    3.114145   -1.409425    0.088760
 N    0.981510   -2.382226   -0.254061
 C    0.007325   -3.219332    0.230449
 C   -1.428629   -2.840425   -0.080309
 C   -1.829232   -2.244974   -1.288205
 C   -3.160789   -1.872089   -1.486381
 C   -4.143735   -2.104650   -0.506225
 C   -3.729635   -2.715586    0.693861
 C   -2.403597   -3.106965    0.894567
 C   -5.592726   -1.658186   -0.709081
 N   -6.003072   -0.273440   -0.419436
 C   -5.620830    0.807612   -1.358949
 C   -4.362472    1.624585   -0.968114
 N   -4.390041    2.165104    0.410708
 C   -5.195839    3.373251    0.628726
 C   -4.653596    1.031330    1.330633
 C   -5.922144    0.210413    0.979381
 O    0.263144   -4.209748    0.893704
 C    6.743551   -2.482799   -0.602625
 H   -0.932366    5.123764    1.408965
 H    1.547658    4.995254    1.553786
 H    1.235157    1.033822   -0.162095
 H   -2.203679    3.159704    0.527953
 H    3.852192    4.753750    1.422610
 H    6.234608    3.957370    1.492488
 H    6.227121   -0.206955    0.511384
 H    5.000733   -4.441408   -1.283986
 H    2.538576   -4.514306   -1.176480
 H    2.568967   -0.581278    0.508513
 H    0.645003   -1.533379   -0.687808
 H   -1.091749   -2.069643   -2.067287
 H   -3.435750   -1.390485   -2.424391
 H   -4.453989   -2.897907    1.487391
 H   -2.101380   -3.596060    1.817406
 H   -5.861195   -1.847286   -1.758441
 H   -6.231646   -2.301416   -0.086952
 H   -5.518247    0.384543   -2.450900
 H   -6.768855    1.764810   -1.391114
 H   -4.191110    2.626791   -1.819498
 H   -3.186110    0.777031   -1.058673
 H   -6.258817    3.176039    0.452043
 H   -4.868234    4.172328   -0.046475
 H   -5.068868    3.730638    1.657270
 H   -4.707075    1.441924    2.467098
 H   -3.439121    0.102280    1.238957
 H   -7.087713    1.073663    1.201320
 H   -6.038272   -0.761481    1.780950
 H    7.245057   -2.376776    0.369916
 H    7.107332   -1.674345   -1.242957
 H    7.112659   -3.415203   -1.037947
}
memory 20GB
set_num_threads(6)
psi4_io.set_default_path("/scratch/bdw2292")
set freeze_core True
E, wfn = energy('mp2/6-311++G**',return_wfn=True)
oeprop(wfn,"WIBERG_LOWDIN_INDICES")
clean()
--------------------------------------------------------------------------

    Molecular point group: c1

    Geometry (in Angstrom), charge = 0, multiplicity = 1:

       Center              X                  Y                   Z               Mass
    ------------   -----------------  -----------------  -----------------  -----------------
         C           -0.499534900013     4.282171141822     0.917604393768    12.000000000000
         C            0.898323099987     4.198437141822     0.987793393768    12.000000000000
         C            1.550441099987     3.018293141822     0.581100393768    12.000000000000
         C            0.712769099987     2.000320141822     0.062932393768    12.000000000000
         N           -0.620786900013     2.063074141822    -0.017886606232    14.003074004430
         C           -1.213722900013     3.185694141822     0.418758393768    12.000000000000
         C            3.038661099987     2.795845141822     0.687717393768    12.000000000000
         C            3.990139099987     3.765947141822     1.042263393768    12.000000000000
         C            5.320333099987     3.328476141822     1.083102393768    12.000000000000
         N            5.711694099987     2.079762141822     0.832276393768    14.003074004430
         C            4.729662099987     1.210457141822     0.519332393768    12.000000000000
         N            3.440502099987     1.537241141822     0.434610393768    14.003074004430
         N            5.126628099987    -0.096056858178     0.281985393768    14.003074004430
         C            4.413282099987    -1.278052858178    -0.140973606232    12.000000000000
         C            5.132413099987    -2.403882858178    -0.646787606232    12.000000000000
         C            4.382193099987    -3.522324858178    -1.052707606232    12.000000000000
         C            2.983414099987    -3.587774858178    -1.011419606232    12.000000000000
         C            2.295167099987    -2.480445858178    -0.509449606232    12.000000000000
         C            3.017744099987    -1.363348858178    -0.069811606232    12.000000000000
         N            0.885109099987    -2.336149858178    -0.412632606232    14.003074004430
         C           -0.089075900013    -3.173255858178     0.071877393768    12.000000000000
         C           -1.525029900013    -2.794348858178    -0.238880606232    12.000000000000
         C           -1.925632900013    -2.198897858178    -1.446776606232    12.000000000000
         C           -3.257189900013    -1.826012858178    -1.644952606232    12.000000000000
         C           -4.240135900013    -2.058573858178    -0.664796606232    12.000000000000
         C           -3.826035900013    -2.669509858178     0.535289393768    12.000000000000
         C           -2.499997900013    -3.060888858178     0.735995393768    12.000000000000
         C           -5.689126900013    -1.612109858178    -0.867652606232    12.000000000000
         N           -6.099472900013    -0.227363858178    -0.578007606232    14.003074004430
         C           -5.717230900013     0.853688141822    -1.517520606232    12.000000000000
         C           -4.458872900013     1.670661141822    -1.126685606232    12.000000000000
         N           -4.486441900013     2.211180141822     0.252136393768    14.003074004430
         C           -5.292239900013     3.419327141822     0.470154393768    12.000000000000
         C           -4.749996900013     1.077406141822     1.172061393768    12.000000000000
         C           -6.018544900013     0.256489141822     0.820809393768    12.000000000000
         O            0.166743099987    -4.163671858178     0.735132393768    15.994914619570
         C            6.647150099987    -2.436722858178    -0.761196606232    12.000000000000
         H           -1.028766900013     5.169840141822     1.250393393768     1.007825032230
         H            1.451257099987     5.041330141822     1.395214393768     1.007825032230
         H            1.138756099987     1.079898141822    -0.320666606232     1.007825032230
         H           -2.300079900013     3.205780141822     0.369381393768     1.007825032230
         H            3.755791099987     4.799826141822     1.264038393768     1.007825032230
         H            6.138207099987     4.003446141822     1.333916393768     1.007825032230
         H            6.130720099987    -0.160878858178     0.352812393768     1.007825032230
         H            4.904332099987    -4.395331858178    -1.442557606232     1.007825032230
         H            2.442175099987    -4.468229858178    -1.335051606232     1.007825032230
         H            2.472566099987    -0.535201858178     0.349941393768     1.007825032230
         H            0.548602099987    -1.487302858178    -0.846379606232     1.007825032230
         H           -1.188149900013    -2.023566858178    -2.225858606232     1.007825032230
         H           -3.532150900013    -1.344408858178    -2.582962606232     1.007825032230
         H           -4.550389900013    -2.851830858178     1.328819393768     1.007825032230
         H           -2.197780900013    -3.549983858178     1.658834393768     1.007825032230
         H           -5.957595900013    -1.801209858178    -1.917012606232     1.007825032230
         H           -6.328046900013    -2.255339858178    -0.245523606232     1.007825032230
         H           -5.614647900013     0.430619141822    -2.609471606232     1.007825032230
         H           -6.865255900013     1.810886141822    -1.549685606232     1.007825032230
         H           -4.287510900013     2.672867141822    -1.978069606232     1.007825032230
         H           -3.282510900013     0.823107141822    -1.217244606232     1.007825032230
         H           -6.355217900013     3.222115141822     0.293471393768     1.007825032230
         H           -4.964634900013     4.218404141822    -0.205046606232     1.007825032230
         H           -5.165268900013     3.776714141822     1.498698393768     1.007825032230
         H           -4.803475900013     1.488000141822     2.308526393768     1.007825032230
         H           -3.535521900013     0.148356141822     1.080385393768     1.007825032230
         H           -7.184113900013     1.119739141822     1.042748393768     1.007825032230
         H           -6.134672900013    -0.715404858178     1.622378393768     1.007825032230
         H            7.148656099987    -2.330699858178     0.211344393768     1.007825032230
         H            7.010931099987    -1.628268858178    -1.401528606232     1.007825032230
         H            7.016258099987    -3.369126858178    -1.196518606232     1.007825032230

  Charge       = 0
  Multiplicity = 1
  Basis Set: 6-311++G**
    Blend: 6-311++G**
  Basis Set: (6-311++G** AUX)
    Blend: AUG-CC-PVTZ-JKFIT

    Orbital Energies [Eh]
    ---------------------

    Doubly Occupied:

       1A    -20.517233     2A    -15.600903     3A    -15.591717
       4A    -15.572989     5A    -15.571535     6A    -15.568697
       7A    -15.566220     8A    -15.561716     9A    -11.369564
      10A    -11.360412    11A    -11.327871    12A    -11.321794
      13A    -11.316989    14A    -11.315989    15A    -11.313530
      16A    -11.308929    17A    -11.299227    18A    -11.288370
      19A    -11.284359    20A    -11.281617    21A    -11.278480
      22A    -11.278454    23A    -11.268610    24A    -11.257225
      25A    -11.257133    26A    -11.257112    27A    -11.255743
      28A    -11.251817    29A    -11.251379    30A    -11.249233
      31A    -11.247980    32A    -11.246816    33A    -11.245929
      34A    -11.241193    35A    -11.234976    36A    -11.232550
      37A    -11.227377    38A     -1.382607    39A     -1.339993
      40A     -1.264334    41A     -1.249329    42A     -1.248458
      43A     -1.237569    44A     -1.206743    45A     -1.203668
      46A     -1.162266    47A     -1.138772    48A     -1.105388
      49A     -1.067893    50A     -1.058804    51A     -1.039163
      52A     -1.036055    53A     -1.024419    54A     -1.007497
      55A     -0.992664    56A     -0.979931    57A     -0.948137
      58A     -0.931031    59A     -0.917491    60A     -0.895174
      61A     -0.867515    62A     -0.862445    63A     -0.849189
      64A     -0.843455    65A     -0.835029    66A     -0.827815
      67A     -0.821051    68A     -0.804374    69A     -0.777294
      70A     -0.746882    71A     -0.737828    72A     -0.726471
      73A     -0.714103    74A     -0.698346    75A     -0.691610
      76A     -0.677721    77A     -0.671881    78A     -0.659831
      79A     -0.658251    80A     -0.653098    81A     -0.648874
      82A     -0.644653    83A     -0.635897    84A     -0.629582
      85A     -0.623970    86A     -0.621539    87A     -0.614150
      88A     -0.610085    89A     -0.603408    90A     -0.598211
      91A     -0.595867    92A     -0.594278    93A     -0.589868
      94A     -0.583232    95A     -0.582553    96A     -0.578035
      97A     -0.577205    98A     -0.573255    99A     -0.562452
     100A     -0.549733   101A     -0.547239   102A     -0.533082
     103A     -0.531950   104A     -0.525563   105A     -0.520980
     106A     -0.519376   107A     -0.513986   108A     -0.507205
     109A     -0.506753   110A     -0.504363   111A     -0.502476
     112A     -0.492726   113A     -0.480223   114A     -0.474196
     115A     -0.462992   116A     -0.443963   117A     -0.433708
     118A     -0.428971   119A     -0.425509   120A     -0.413805
     121A     -0.406928   122A     -0.398122   123A     -0.389540
     124A     -0.386352   125A     -0.367558   126A     -0.346316
     127A     -0.342956   128A     -0.336430   129A     -0.320044
     130A     -0.316983   131A     -0.293374

  @DF-RHF Final Energy: -1572.31237006376909

   => Energetics <=

    Nuclear Repulsion Energy =           3800.6388913359942308
    One-Electron Energy =               -9700.1550235591330420
    Two-Electron Energy =                4327.2037621593699441
    Total Energy =                      -1572.3123700637688671

  Dipole Moment: [D]
     X:    -0.3460      Y:     5.7667      Z:    -1.1122     Total:     5.8832

  Basis Set: (6-311++G** AUX)
    Blend: AUG-CC-PVTZ-RI
	 Reference Energy          =   -1572.3123700637690945 [Eh]
	 Singles Energy            =      -0.0000000000000000 [Eh]
	 Same-Spin Energy          =      -1.4742443812751358 [Eh]
	 Opposite-Spin Energy      =      -4.0548667414119555 [Eh]
	 Correlation Energy        =      -5.5291111226870910 [Eh]
	 Total Energy              =   -1577.8414811864561216 [Eh]

	 ================> DF-SCS-MP2 Energies <==================
	-----------------------------------------------------------
	 SCS Same-Spin Scale       =       0.3333333333333333 [-]
	 SCS Opposite-Spin Scale   =       1.2000000000000000 [-]
	 SCS Same-Spin Energy      =      -0.4914147937583786 [Eh]
	 SCS Opposite-Spin Energy  =      -4.8658400896943466 [Eh]
	 SCS Correlation Energy    =      -5.3572548834527254 [Eh]
	 SCS Total Energy          =   -1577.6696249472217914 [Eh]
	-----------------------------------------------------------

*** Psi4 exiting successfully. Buy a developer a beer!
