 Gaussian 09, Revision A.02,
 Gaussian 09:  EM64L-G09RevA.02 11-Jun-2009

 --------------------------------------------------
 #P opt=(,maxcycle=400) wB97XD/6-31G* MaxDisk=100GB
 --------------------------------------------------

 --------------------------------------------------------------
 MOLECULE0 Rotatable Bond Optimization on node37.bme.utexas.edu
 --------------------------------------------------------------
 Symbolic Z-matrix:
 Charge =  0 Multiplicity = 1

 SCF Done:  E(RwB97XD) =  -1581.52350848     A.U. after   16 cycles
 SCF Done:  E(RwB97XD) =  -1581.58437839     A.U. after   13 cycles
 SCF Done:  E(RwB97XD) =  -1581.66998527     A.U. after   14 cycles
 SCF Done:  E(RwB97XD) =  -1581.73195589     A.U. after   17 cycles
 SCF Done:  E(RwB97XD) =  -1581.75600661     A.U. after   14 cycles
 SCF Done:  E(RwB97XD) =  -1581.75815225     A.U. after   14 cycles
 SCF Done:  E(RwB97XD) =  -1581.76008347     A.U. after   14 cycles
 SCF Done:  E(RwB97XD) =  -1581.76116448     A.U. after   14 cycles
 SCF Done:  E(RwB97XD) =  -1581.76171004     A.U. after   14 cycles
 SCF Done:  E(RwB97XD) =  -1581.76181697     A.U. after   14 cycles
 SCF Done:  E(RwB97XD) =  -1581.76317860     A.U. after   12 cycles
 SCF Done:  E(RwB97XD) =  -1581.76319500     A.U. after   12 cycles
 SCF Done:  E(RwB97XD) =  -1581.76320650     A.U. after   12 cycles
 SCF Done:  E(RwB97XD) =  -1581.76321159     A.U. after   10 cycles
 SCF Done:  E(RwB97XD) =  -1581.76321606     A.U. after   10 cycles
 SCF Done:  E(RwB97XD) =  -1581.76321634     A.U. after   11 cycles
 SCF Done:  E(RwB97XD) =  -1581.76321594     A.U. after    8 cycles
 SCF Done:  E(RwB97XD) =  -1581.76321580     A.U. after    7 cycles
 SCF Done:  E(RwB97XD) =  -1581.76321605     A.U. after    7 cycles
 SCF Done:  E(RwB97XD) =  -1581.76321593     A.U. after    6 cycles
 Optimization completed.
    -- Stationary point found.

                         Standard orientation:
 ---------------------------------------------------------------------
 Center     Atomic      Atomic             Coordinates (Angstroms)
 Number     Number       Type             X           Y           Z
 ---------------------------------------------------------------------
      1          6           0       -0.474748    4.274605   -0.771279
      2          6           0        0.869786    4.192149   -0.429957
      3          6           0        1.546538    2.990406   -0.631512
      4          6           0        0.820371    1.926335   -1.182883
      5          7           0       -0.468601    1.989857   -1.512017
      6          6           0       -1.097801    3.149689   -1.300650
      7          6           0        2.968440    2.789514   -0.253848
      8          6           0        3.899104    3.819771   -0.154178
      9          6           0        5.185112    3.447528    0.235778
     10          7           0        5.544812    2.198245    0.496840
     11          6           0        4.571711    1.275541    0.354257
     12          7           0        3.311633    1.523906   -0.002371
     13          7           0        4.960904   -0.010408    0.612368
     14          6           0        4.245387   -1.216650    0.494227
     15          6           0        4.969350   -2.426236    0.479639
     16          6           0        4.248930   -3.609239    0.338699
     17          6           0        2.863167   -3.650781    0.195954
     18          6           0        2.171719   -2.443322    0.217301
     19          6           0        2.859851   -1.243191    0.393331
     20          7           0        0.785132   -2.305572    0.039704
     21          6           0       -0.154798   -3.232860   -0.330689
     22          6           0       -1.474286   -2.601445   -0.675013
     23          6           0       -1.549401   -1.358580   -1.310766
     24          6           0       -2.781729   -0.779250   -1.574476
     25          6           0       -3.965105   -1.410326   -1.191192
     26          6           0       -3.883419   -2.677672   -0.607432
     27          6           0       -2.653317   -3.274649   -0.357262
     28          6           0       -5.302158   -0.704602   -1.348385
     29          7           0       -5.692339    0.225779   -0.299864
     30          6           0       -5.025193    1.522403   -0.247960
     31          6           0       -3.815326    1.577295    0.702640
     32          7           0       -4.112892    1.068691    2.038759
     33          6           0       -4.901639    1.978032    2.850838
     34          6           0       -4.679198   -0.274664    1.939946
     35          6           0       -5.914244   -0.340248    1.026143
     36          8           0        0.037299   -4.436684   -0.364345
     37          6           0        6.472135   -2.441732    0.599329
     38          1           0       -1.034411    5.191058   -0.618177
     39          1           0        1.374599    5.045204    0.014275
     40          1           0        1.324730    0.981181   -1.367189
     41          1           0       -2.152736    3.176364   -1.565123
     42          1           0        3.659826    4.851544   -0.379852
     43          1           0        5.966407    4.197903    0.339029
     44          1           0        5.942062   -0.076180    0.838664
     45          1           0        4.797319   -4.547834    0.325797
     46          1           0        2.334353   -4.584963    0.065474
     47          1           0        2.314654   -0.311893    0.418425
     48          1           0        0.446501   -1.359155    0.130871
     49          1           0       -0.652903   -0.833764   -1.627820
     50          1           0       -2.809606    0.190099   -2.065587
     51          1           0       -4.798150   -3.197425   -0.330907
     52          1           0       -2.589646   -4.257114    0.099863
     53          1           0       -5.307891   -0.149558   -2.294291
     54          1           0       -6.094450   -1.460497   -1.422706
     55          1           0       -4.723225    1.803501   -1.264004
     56          1           0       -5.766487    2.267766    0.077761
     57          1           0       -3.457764    2.611112    0.792098
     58          1           0       -2.990623    0.981813    0.295582
     59          1           0       -5.911617    2.205806    2.466637
     60          1           0       -4.363786    2.927334    2.951015
     61          1           0       -5.017617    1.551269    3.853083
     62          1           0       -4.937856   -0.623043    2.947266
     63          1           0       -3.897396   -0.938306    1.552597
     64          1           0       -6.742857    0.208414    1.498024
     65          1           0       -6.248215   -1.377984    0.915266
     66          1           0        6.817478   -2.030185    1.557641
     67          1           0        6.952327   -1.865130   -0.201955
     68          1           0        6.852619   -3.464271    0.535484
 ---------------------------------------------------------------------

 The electronic state is 1-A.
 Alpha  occ. eigenvalues --  -19.23412 -14.49283 -14.48320 -14.46751 -14.46096
 Alpha  occ. eigenvalues --  -14.45764 -14.43617 -14.43135 -10.41778 -10.40081
 Alpha  occ. eigenvalues --  -10.37615 -10.36338 -10.35325 -10.35085 -10.34623
 Alpha  occ. eigenvalues --  -10.34135 -10.34016 -10.33623 -10.32863 -10.32367
 Alpha  occ. eigenvalues --  -10.31860 -10.31493 -10.31179 -10.30936 -10.30708
 Alpha  occ. eigenvalues --  -10.30688 -10.30677 -10.30586 -10.30534 -10.30403
 Alpha  occ. eigenvalues --  -10.30377 -10.30220 -10.30020 -10.29975 -10.29575
 Alpha  occ. eigenvalues --  -10.28739 -10.28405  -1.13444  -1.12296  -1.06322
 Alpha  occ. eigenvalues --   -1.04565  -1.03829  -1.03634  -1.00716  -0.99558
 Alpha  occ. eigenvalues --   -0.96086  -0.94671  -0.93098  -0.89778  -0.88124
 Alpha  occ. eigenvalues --   -0.87388  -0.86227  -0.85400  -0.84542  -0.83783
 Alpha  occ. eigenvalues --   -0.81888  -0.79581  -0.78270  -0.77798  -0.76320
 Alpha  occ. eigenvalues --   -0.73881  -0.73301  -0.73025  -0.72621  -0.70870
 Alpha  occ. eigenvalues --   -0.70314  -0.69615  -0.68039  -0.66413  -0.65150
 Alpha  occ. eigenvalues --   -0.63657  -0.63408  -0.62228  -0.61762  -0.60211
 Alpha  occ. eigenvalues --   -0.58848  -0.58045  -0.57570  -0.56611  -0.56101
 Alpha  occ. eigenvalues --   -0.55817  -0.55236  -0.55134  -0.54965  -0.54255
 Alpha  occ. eigenvalues --   -0.53867  -0.53239  -0.53154  -0.52612  -0.52174
 Alpha  occ. eigenvalues --   -0.51912  -0.51509  -0.51371  -0.50999  -0.50575
 Alpha  occ. eigenvalues --   -0.50365  -0.50116  -0.49974  -0.49497  -0.48335
 Alpha  occ. eigenvalues --   -0.47217  -0.46907  -0.46619  -0.46319  -0.46211
 Alpha  occ. eigenvalues --   -0.45762  -0.45236  -0.44798  -0.44045  -0.43932
 Alpha  occ. eigenvalues --   -0.43328  -0.43017  -0.42142  -0.41766  -0.41439
 Alpha  occ. eigenvalues --   -0.40964  -0.40777  -0.39912  -0.38187  -0.37592
 Alpha  occ. eigenvalues --   -0.35821  -0.35293  -0.34002  -0.33447  -0.33374
 Alpha  occ. eigenvalues --   -0.32819  -0.31904  -0.30772  -0.29115  -0.27079
 Alpha  occ. eigenvalues --   -0.24996
 Alpha virt. eigenvalues --   -0.00292   0.02872   0.03586   0.04480   0.06433
 Alpha virt. eigenvalues --    0.07258   0.08204   0.10372   0.13887   0.14814
 Alpha virt. eigenvalues --    0.15729   0.16386   0.17252   0.17441   0.18251

 Mulliken atomic charges:
              1
     1  C   -0.197836
     2  C   -0.154404
     3  C    0.035520
     4  C    0.009561
     5  N   -0.437508
     6  C    0.035725
     7  C    0.295148
     8  C   -0.254773
     9  C    0.049022
    10  N   -0.493049
    11  C    0.714406
    12  N   -0.568402
    13  N   -0.802112
    14  C    0.291509
    15  C    0.119853
    16  C   -0.240383
    17  C   -0.191298
    18  C    0.358138
    19  C   -0.269710
    20  N   -0.757927
    21  C    0.585691
    22  C    0.015197
    23  C   -0.205360
    24  C   -0.217898
    25  C    0.155966
    26  C   -0.223077
    27  C   -0.178382
    28  C   -0.263561
    29  N   -0.382231
    30  C   -0.183906
    31  C   -0.181766
    32  N   -0.385713
    33  C   -0.349273
    34  C   -0.182640
    35  C   -0.186516
    36  O   -0.513267
    37  C   -0.607358
    38  H    0.186141
    39  H    0.186728
    40  H    0.198126
    41  H    0.179046
    42  H    0.180747
    43  H    0.189493
    44  H    0.369214
    45  H    0.160819
    46  H    0.213075
    47  H    0.199382
    48  H    0.361557
    49  H    0.185452
    50  H    0.172072
    51  H    0.163617
    52  H    0.195605
    53  H    0.170285
    54  H    0.168918
    55  H    0.148156
    56  H    0.158354
    57  H    0.141652
    58  H    0.174894
    59  H    0.135259
    60  H    0.164117
    61  H    0.167870
    62  H    0.153490
    63  H    0.172929
    64  H    0.159428
    65  H    0.154990
    66  H    0.178037
    67  H    0.182740
    68  H    0.190417
 Sum of Mulliken atomic charges =   0.00000

 Dipole moment (field-independent basis, Debye):
    X=              0.5793    Y=              6.5722    Z=              0.4351  Tot=              6.6120
 Quadrupole moment (field-independent basis, Debye-Ang):
   XX=           -193.2997   YY=           -202.5126   ZZ=           -220.4854
   XY=              3.1070   XZ=             -1.2789   YZ=             -5.2159

 Normal termination of Gaussian 09 at Wed Mar 25 14:51:52 2020.
