 Gaussian 09, Revision A.02,
 Gaussian 09:  EM64L-G09RevA.02 11-Jun-2009

 --------------------------------------------------
 #P opt=(,maxcycle=400) wB97XD/6-31G* MaxDisk=100GB
 --------------------------------------------------

 -----------------------------------------------------------------
 MOLECULE0 Rotatable Bond Optimization on g2-node38.bme.utexas.edu
 -----------------------------------------------------------------
 Symbolic Z-matrix:
 Charge =  0 Multiplicity = 1

 SCF Done:  E(RwB97XD) =  -1581.50663164     A.U. after   16 cycles
 SCF Done:  E(RwB97XD) =  -1581.57069846     A.U. after   13 cycles
 SCF Done:  E(RwB97XD) =  -1581.67330044     A.U. after   14 cycles
 SCF Done:  E(RwB97XD) =  -1581.71775694     A.U. after   14 cycles
 SCF Done:  E(RwB97XD) =  -1581.73064380     A.U. after   17 cycles
 SCF Done:  E(RwB97XD) =  -1581.72894188     A.U. after   16 cycles
 SCF Done:  E(RwB97XD) =  -1581.74528676     A.U. after   14 cycles
 SCF Done:  E(RwB97XD) =  -1581.75451058     A.U. after   14 cycles
 SCF Done:  E(RwB97XD) =  -1581.75804642     A.U. after   16 cycles
 SCF Done:  E(RwB97XD) =  -1581.75936181     A.U. after   14 cycles
 SCF Done:  E(RwB97XD) =  -1581.76155977     A.U. after   12 cycles
 SCF Done:  E(RwB97XD) =  -1581.76160628     A.U. after   12 cycles
 SCF Done:  E(RwB97XD) =  -1581.76160464     A.U. after   13 cycles
 SCF Done:  E(RwB97XD) =  -1581.76162834     A.U. after   12 cycles
 SCF Done:  E(RwB97XD) =  -1581.76163170     A.U. after   10 cycles
 SCF Done:  E(RwB97XD) =  -1581.76163307     A.U. after    9 cycles
 SCF Done:  E(RwB97XD) =  -1581.76163385     A.U. after   10 cycles
 SCF Done:  E(RwB97XD) =  -1581.76163395     A.U. after    8 cycles
 SCF Done:  E(RwB97XD) =  -1581.76163415     A.U. after    7 cycles
 SCF Done:  E(RwB97XD) =  -1581.76163412     A.U. after    7 cycles
 Optimization completed.
    -- Stationary point found.

                         Standard orientation:
 ---------------------------------------------------------------------
 Center     Atomic      Atomic             Coordinates (Angstroms)
 Number     Number       Type             X           Y           Z
 ---------------------------------------------------------------------
      1          6           0       -1.226316    4.807079   -0.669747
      2          6           0       -2.527422    4.351484   -0.495425
      3          6           0       -2.732634    3.055591   -0.025119
      4          6           0       -1.597310    2.284088    0.256906
      5          7           0       -0.345153    2.703472    0.085040
      6          6           0       -0.174172    3.946328   -0.375935
      7          6           0       -4.080935    2.457872    0.141198
      8          6           0       -5.243741    3.198635    0.333934
      9          6           0       -6.425472    2.466052    0.439902
     10          7           0       -6.481297    1.142310    0.382185
     11          6           0       -5.295352    0.522130    0.216226
     12          7           0       -4.114314    1.124430    0.084454
     13          7           0       -5.362390   -0.843360    0.182726
     14          6           0       -4.332137   -1.801145    0.128306
     15          6           0       -4.639958   -3.127214    0.493475
     16          6           0       -3.610477   -4.062827    0.457480
     17          6           0       -2.302468   -3.748465    0.096149
     18          6           0       -2.023549   -2.433528   -0.267422
     19          6           0       -3.040480   -1.478325   -0.273436
     20          7           0       -0.751076   -1.955978   -0.629242
     21          6           0        0.464916   -2.583809   -0.557817
     22          6           0        1.634164   -1.685975   -0.853040
     23          6           0        1.620747   -0.306090   -0.629314
     24          6           0        2.738432    0.461782   -0.932804
     25          6           0        3.894685   -0.121196   -1.451767
     26          6           0        3.898977   -1.501710   -1.669867
     27          6           0        2.790409   -2.278657   -1.363046
     28          6           0        5.126066    0.720987   -1.753253
     29          7           0        6.111003    0.906463   -0.701574
     30          6           0        6.909377   -0.251471   -0.315948
     31          6           0        6.334255   -1.033008    0.877657
     32          7           0        6.042811   -0.183242    2.029218
     33          6           0        7.224182    0.246529    2.755837
     34          6           0        5.165797    0.912169    1.625204
     35          6           0        5.724012    1.722820    0.443225
     36          8           0        0.608307   -3.768094   -0.300100
     37          6           0       -6.031313   -3.520409    0.920800
     38          1           0       -1.029293    5.805906   -1.044001
     39          1           0       -3.369310    4.988649   -0.750806
     40          1           0       -1.724164    1.277911    0.647628
     41          1           0        0.855577    4.265666   -0.518571
     42          1           0       -5.245061    4.278505    0.415957
     43          1           0       -7.376817    2.974425    0.583246
     44          1           0       -6.299910   -1.186099    0.330124
     45          1           0       -3.835523   -5.088952    0.737120
     46          1           0       -1.520577   -4.494376    0.099664
     47          1           0       -2.820886   -0.461890   -0.563831
     48          1           0       -0.737320   -0.997932   -0.945030
     49          1           0        0.762860    0.198266   -0.191600
     50          1           0        2.703027    1.533293   -0.750574
     51          1           0        4.786413   -1.973759   -2.085602
     52          1           0        2.798372   -3.352501   -1.519291
     53          1           0        5.648721    0.280316   -2.611489
     54          1           0        4.797103    1.719943   -2.066807
     55          1           0        7.019619   -0.910904   -1.184388
     56          1           0        7.918689    0.104260   -0.059864
     57          1           0        7.036441   -1.816853    1.186175
     58          1           0        5.399476   -1.523962    0.582782
     59          1           0        7.925176    0.885276    2.189871
     60          1           0        7.777741   -0.637363    3.091117
     61          1           0        6.912939    0.803778    3.646285
     62          1           0        5.001280    1.570441    2.486926
     63          1           0        4.197056    0.477962    1.352243
     64          1           0        6.612953    2.278423    0.777689
     65          1           0        4.991543    2.468760    0.114122
     66          1           0       -6.771367   -3.364313    0.123882
     67          1           0       -6.365111   -2.954476    1.800160
     68          1           0       -6.066878   -4.580597    1.183870
 ---------------------------------------------------------------------

 The electronic state is 1-A.
 Alpha  occ. eigenvalues --  -19.23348 -14.49256 -14.48458 -14.46728 -14.46086
 Alpha  occ. eigenvalues --  -14.45740 -14.43379 -14.42722 -10.41747 -10.40127
 Alpha  occ. eigenvalues --  -10.37598 -10.36337 -10.35289 -10.35027 -10.34637
 Alpha  occ. eigenvalues --  -10.34134 -10.34069 -10.33598 -10.32848 -10.32292
 Alpha  occ. eigenvalues --  -10.31856 -10.31038 -10.30995 -10.30954 -10.30710
 Alpha  occ. eigenvalues --  -10.30698 -10.30371 -10.30279 -10.30256 -10.30233
 Alpha  occ. eigenvalues --  -10.30232 -10.30117 -10.30111 -10.30033 -10.29534
 Alpha  occ. eigenvalues --  -10.28848 -10.28336  -1.13492  -1.12301  -1.06306
 Alpha  occ. eigenvalues --   -1.04558  -1.03603  -1.03553  -1.00717  -0.99257
 Alpha  occ. eigenvalues --   -0.96019  -0.94682  -0.93090  -0.89763  -0.88059
 Alpha  occ. eigenvalues --   -0.87362  -0.86238  -0.85108  -0.84471  -0.83761
 Alpha  occ. eigenvalues --   -0.81666  -0.79492  -0.78257  -0.77659  -0.76306
 Alpha  occ. eigenvalues --   -0.73858  -0.72954  -0.72946  -0.72598  -0.70813
 Alpha  occ. eigenvalues --   -0.70268  -0.69519  -0.67961  -0.66409  -0.65193
 Alpha  occ. eigenvalues --   -0.63616  -0.63255  -0.62260  -0.61800  -0.60197
 Alpha  occ. eigenvalues --   -0.58813  -0.57958  -0.57454  -0.56468  -0.56069
 Alpha  occ. eigenvalues --   -0.55802  -0.55145  -0.54950  -0.54630  -0.54225
 Alpha  occ. eigenvalues --   -0.53567  -0.53188  -0.52973  -0.52334  -0.52179
 Alpha  occ. eigenvalues --   -0.51854  -0.51495  -0.51333  -0.50900  -0.50592
 Alpha  occ. eigenvalues --   -0.50458  -0.50178  -0.49951  -0.49427  -0.48310
 Alpha  occ. eigenvalues --   -0.47276  -0.46728  -0.46452  -0.46284  -0.45988
 Alpha  occ. eigenvalues --   -0.45574  -0.44873  -0.44525  -0.43927  -0.43717
 Alpha  occ. eigenvalues --   -0.43439  -0.43047  -0.42064  -0.41690  -0.41204
 Alpha  occ. eigenvalues --   -0.40646  -0.40590  -0.39936  -0.38200  -0.37598
 Alpha  occ. eigenvalues --   -0.35782  -0.35283  -0.33997  -0.33447  -0.33339
 Alpha  occ. eigenvalues --   -0.32836  -0.31832  -0.30557  -0.29157  -0.27090
 Alpha  occ. eigenvalues --   -0.24671
 Alpha virt. eigenvalues --   -0.00297   0.02900   0.03363   0.04522   0.06516
 Alpha virt. eigenvalues --    0.07281   0.08336   0.10415   0.14541   0.14889
 Alpha virt. eigenvalues --    0.15956   0.16292   0.17361   0.17725   0.18683

 Mulliken atomic charges:
              1
     1  C   -0.197816
     2  C   -0.155237
     3  C    0.035168
     4  C    0.006889
     5  N   -0.435303
     6  C    0.031081
     7  C    0.295608
     8  C   -0.255109
     9  C    0.048859
    10  N   -0.492943
    11  C    0.712207
    12  N   -0.567560
    13  N   -0.799965
    14  C    0.290024
    15  C    0.119879
    16  C   -0.240156
    17  C   -0.189950
    18  C    0.357097
    19  C   -0.267429
    20  N   -0.767226
    21  C    0.599406
    22  C    0.016446
    23  C   -0.208110
    24  C   -0.228607
    25  C    0.159706
    26  C   -0.223313
    27  C   -0.176852
    28  C   -0.262972
    29  N   -0.380710
    30  C   -0.186288
    31  C   -0.183435
    32  N   -0.383586
    33  C   -0.349534
    34  C   -0.182820
    35  C   -0.184773
    36  O   -0.516458
    37  C   -0.608194
    38  H    0.186488
    39  H    0.186327
    40  H    0.201313
    41  H    0.181239
    42  H    0.180745
    43  H    0.189375
    44  H    0.369153
    45  H    0.160922
    46  H    0.215608
    47  H    0.195907
    48  H    0.359660
    49  H    0.188303
    50  H    0.166915
    51  H    0.163886
    52  H    0.198328
    53  H    0.168955
    54  H    0.166649
    55  H    0.152159
    56  H    0.159078
    57  H    0.153113
    58  H    0.173786
    59  H    0.133791
    60  H    0.167295
    61  H    0.166561
    62  H    0.152229
    63  H    0.173962
    64  H    0.158549
    65  H    0.149563
    66  H    0.177724
    67  H    0.183638
    68  H    0.190756
 Sum of Mulliken atomic charges =   0.00000

 Dipole moment (field-independent basis, Debye):
    X=             -2.5378    Y=              6.1211    Z=             -1.0843  Tot=              6.7144
 Quadrupole moment (field-independent basis, Debye-Ang):
   XX=           -189.8194   YY=           -196.2243   ZZ=           -219.0785
   XY=             -6.1374   XZ=             -5.5525   YZ=             -1.6328

 Normal termination of Gaussian 09 at Tue Mar 10 16:08:17 2020.
