 Gaussian 09, Revision A.02,
 Gaussian 09:  EM64L-G09RevA.02 11-Jun-2009

 --------------------------------------------------
 #P opt=(,maxcycle=400) wB97XD/6-31G* MaxDisk=100GB
 --------------------------------------------------

 --------------------------------------------------------------
 MOLECULE0 Rotatable Bond Optimization on node37.bme.utexas.edu
 --------------------------------------------------------------
 Symbolic Z-matrix:
 Charge =  0 Multiplicity = 1

 SCF Done:  E(RwB97XD) =  -1581.51687312     A.U. after   16 cycles
 SCF Done:  E(RwB97XD) =  -1581.58200755     A.U. after   14 cycles
 SCF Done:  E(RwB97XD) =  -1581.70350465     A.U. after   15 cycles
 SCF Done:  E(RwB97XD) =  -1581.72039961     A.U. after   16 cycles
 SCF Done:  E(RwB97XD) =  -1581.75977434     A.U. after   15 cycles
 SCF Done:  E(RwB97XD) =  -1581.75831634     A.U. after   16 cycles
 SCF Done:  E(RwB97XD) =  -1581.76116990     A.U. after   14 cycles
 SCF Done:  E(RwB97XD) =  -1581.75422229     A.U. after   17 cycles
 SCF Done:  E(RwB97XD) =  -1581.76171749     A.U. after   17 cycles
 SCF Done:  E(RwB97XD) =  -1581.76275114     A.U. after   14 cycles
 SCF Done:  E(RwB97XD) =  -1581.76386150     A.U. after   13 cycles
 SCF Done:  E(RwB97XD) =  -1581.76399452     A.U. after   13 cycles
 SCF Done:  E(RwB97XD) =  -1581.76401152     A.U. after   12 cycles
 SCF Done:  E(RwB97XD) =  -1581.76403120     A.U. after   12 cycles
 SCF Done:  E(RwB97XD) =  -1581.76403210     A.U. after   11 cycles
 SCF Done:  E(RwB97XD) =  -1581.76403599     A.U. after    9 cycles
 SCF Done:  E(RwB97XD) =  -1581.76403678     A.U. after    8 cycles
 SCF Done:  E(RwB97XD) =  -1581.76403697     A.U. after    8 cycles
 SCF Done:  E(RwB97XD) =  -1581.76403712     A.U. after    7 cycles
 SCF Done:  E(RwB97XD) =  -1581.76403718     A.U. after    7 cycles
 Optimization completed.
    -- Stationary point found.

                         Standard orientation:
 ---------------------------------------------------------------------
 Center     Atomic      Atomic             Coordinates (Angstroms)
 Number     Number       Type             X           Y           Z
 ---------------------------------------------------------------------
      1          6           0       -0.604988    4.168235   -0.064775
      2          6           0        0.773744    4.156512    0.105360
      3          6           0        1.476606    2.982033   -0.160814
      4          6           0        0.736527    1.874194   -0.597702
      5          7           0       -0.584783    1.868522   -0.753216
      6          6           0       -1.242062    3.003816   -0.486494
      7          6           0        2.940915    2.846657    0.030047
      8          6           0        3.830725    3.917977    0.086640
      9          6           0        5.169365    3.594334    0.297058
     10          7           0        5.621054    2.351640    0.420619
     11          6           0        4.680891    1.391806    0.325530
     12          7           0        3.376624    1.590902    0.154518
     13          7           0        5.149103    0.107529    0.420045
     14          6           0        4.459641   -1.101201    0.203535
     15          6           0        5.192182   -2.224349   -0.226586
     16          6           0        4.489211   -3.402637   -0.461854
     17          6           0        3.109205   -3.510804   -0.311279
     18          6           0        2.406171   -2.389857    0.124842
     19          6           0        3.087596   -1.207091    0.410242
     20          7           0        1.010435   -2.349559    0.313519
     21          6           0        0.063416   -3.225739   -0.153391
     22          6           0       -1.349401   -2.802657    0.136426
     23          6           0       -2.339575   -3.169805   -0.773834
     24          6           0       -3.661453   -2.805383   -0.552571
     25          6           0       -4.030826   -2.085376    0.585841
     26          6           0       -3.037705   -1.749728    1.507713
     27          6           0       -1.710135   -2.093103    1.285004
     28          6           0       -5.483646   -1.697439    0.819570
     29          7           0       -5.911283   -0.364948    0.434462
     30          6           0       -5.851016   -0.034184   -0.983715
     31          6           0       -4.584309    0.739652   -1.381999
     32          7           0       -4.365076    1.923077   -0.550215
     33          6           0       -5.285809    3.015055   -0.819385
     34          6           0       -4.310095    1.523755    0.854715
     35          6           0       -5.561713    0.751826    1.301653
     36          8           0        0.316970   -4.251012   -0.763398
     37          6           0        6.682139   -2.150967   -0.443498
     38          1           0       -1.182850    5.063574    0.140256
     39          1           0        1.288513    5.043237    0.465024
     40          1           0        1.257769    0.950820   -0.836155
     41          1           0       -2.323781    2.950571   -0.613041
     42          1           0        3.518587    4.947459   -0.037614
     43          1           0        5.920283    4.379117    0.363358
     44          1           0        6.155209    0.064408    0.481226
     45          1           0        5.041795   -4.275727   -0.799645
     46          1           0        2.589798   -4.429993   -0.541374
     47          1           0        2.541693   -0.341767    0.757223
     48          1           0        0.657780   -1.456846    0.627807
     49          1           0       -2.056875   -3.747778   -1.647684
     50          1           0       -4.424459   -3.097943   -1.270306
     51          1           0       -3.308406   -1.224793    2.421126
     52          1           0       -0.964159   -1.845456    2.035675
     53          1           0       -6.119570   -2.411756    0.280654
     54          1           0       -5.715467   -1.818089    1.884676
     55          1           0       -5.924738   -0.959330   -1.565551
     56          1           0       -6.736643    0.568125   -1.236967
     57          1           0       -4.646129    1.051715   -2.431256
     58          1           0       -3.701560    0.097728   -1.278190
     59          1           0       -6.347808    2.804935   -0.608506
     60          1           0       -5.204786    3.294210   -1.875383
     61          1           0       -4.993971    3.883551   -0.217744
     62          1           0       -4.179520    2.420887    1.472808
     63          1           0       -3.415971    0.901439    0.979044
     64          1           0       -6.415231    1.446410    1.327334
     65          1           0       -5.431413    0.379142    2.323731
     66          1           0        7.226739   -1.942965    0.487737
     67          1           0        6.950796   -1.370366   -1.166300
     68          1           0        7.062478   -3.099761   -0.830579
 ---------------------------------------------------------------------

 The electronic state is 1-A.
 Alpha  occ. eigenvalues --  -19.23555 -14.48721 -14.48568 -14.45461 -14.44977
 Alpha  occ. eigenvalues --  -14.44766 -14.44138 -14.43887 -10.41116 -10.40304
 Alpha  occ. eigenvalues --  -10.36857 -10.35717 -10.34349 -10.33982 -10.33482
 Alpha  occ. eigenvalues --  -10.32915 -10.32838 -10.32722 -10.32242 -10.31837
 Alpha  occ. eigenvalues --  -10.31575 -10.31415 -10.31339 -10.31310 -10.31296
 Alpha  occ. eigenvalues --  -10.31273 -10.31169 -10.31105 -10.30973 -10.30726
 Alpha  occ. eigenvalues --  -10.30583 -10.30492 -10.30243 -10.29845 -10.29421
 Alpha  occ. eigenvalues --  -10.28841 -10.28339  -1.13694  -1.11703  -1.04647
 Alpha  occ. eigenvalues --   -1.04395  -1.04049  -1.03464  -1.00138  -1.00023
 Alpha  occ. eigenvalues --   -0.96428  -0.94465  -0.91892  -0.88887  -0.88038
 Alpha  occ. eigenvalues --   -0.86392  -0.86119  -0.85846  -0.85004  -0.83467
 Alpha  occ. eigenvalues --   -0.82347  -0.79696  -0.78120  -0.77203  -0.75694
 Alpha  occ. eigenvalues --   -0.73776  -0.73098  -0.72603  -0.71673  -0.71038
 Alpha  occ. eigenvalues --   -0.70627  -0.69356  -0.68046  -0.66243  -0.64617
 Alpha  occ. eigenvalues --   -0.64071  -0.62982  -0.62089  -0.60746  -0.59869
 Alpha  occ. eigenvalues --   -0.58435  -0.57890  -0.56934  -0.56375  -0.55760
 Alpha  occ. eigenvalues --   -0.55570  -0.55417  -0.54931  -0.54689  -0.54306
 Alpha  occ. eigenvalues --   -0.54048  -0.53541  -0.53294  -0.52910  -0.52323
 Alpha  occ. eigenvalues --   -0.51325  -0.51263  -0.50941  -0.50650  -0.50494
 Alpha  occ. eigenvalues --   -0.50266  -0.49625  -0.49165  -0.48818  -0.48575
 Alpha  occ. eigenvalues --   -0.47283  -0.47189  -0.46797  -0.46459  -0.45868
 Alpha  occ. eigenvalues --   -0.45413  -0.45207  -0.44747  -0.44206  -0.43766
 Alpha  occ. eigenvalues --   -0.43346  -0.42640  -0.42508  -0.41969  -0.41446
 Alpha  occ. eigenvalues --   -0.41369  -0.40931  -0.39490  -0.37745  -0.36534
 Alpha  occ. eigenvalues --   -0.34520  -0.34376  -0.33745  -0.33305  -0.32953
 Alpha  occ. eigenvalues --   -0.32254  -0.32164  -0.31175  -0.28988  -0.27016
 Alpha  occ. eigenvalues --   -0.25578
 Alpha virt. eigenvalues --    0.00605   0.03184   0.04123   0.05506   0.06078
 Alpha virt. eigenvalues --    0.08110   0.08593   0.10657   0.14271   0.15048
 Alpha virt. eigenvalues --    0.16203   0.16663   0.16933   0.18005   0.18857

 Mulliken atomic charges:
              1
     1  C   -0.201448
     2  C   -0.158964
     3  C    0.030070
     4  C   -0.001190
     5  N   -0.435067
     6  C    0.012244
     7  C    0.296483
     8  C   -0.253080
     9  C    0.046132
    10  N   -0.493813
    11  C    0.700651
    12  N   -0.566120
    13  N   -0.790111
    14  C    0.284625
    15  C    0.122450
    16  C   -0.240673
    17  C   -0.186871
    18  C    0.351632
    19  C   -0.258302
    20  N   -0.762713
    21  C    0.589004
    22  C    0.019447
    23  C   -0.174033
    24  C   -0.222863
    25  C    0.158312
    26  C   -0.216597
    27  C   -0.202561
    28  C   -0.267486
    29  N   -0.382142
    30  C   -0.186835
    31  C   -0.184046
    32  N   -0.393831
    33  C   -0.352089
    34  C   -0.184478
    35  C   -0.181606
    36  O   -0.511661
    37  C   -0.604391
    38  H    0.175089
    39  H    0.178088
    40  H    0.197042
    41  H    0.218970
    42  H    0.178681
    43  H    0.186358
    44  H    0.366471
    45  H    0.160427
    46  H    0.212427
    47  H    0.191938
    48  H    0.363592
    49  H    0.199350
    50  H    0.165259
    51  H    0.162880
    52  H    0.174378
    53  H    0.170819
    54  H    0.171345
    55  H    0.158446
    56  H    0.159156
    57  H    0.156982
    58  H    0.187070
    59  H    0.144175
    60  H    0.171637
    61  H    0.162079
    62  H    0.150155
    63  H    0.175588
    64  H    0.159393
    65  H    0.154212
    66  H    0.176611
    67  H    0.184438
    68  H    0.188865
 Sum of Mulliken atomic charges =   0.00000

 Dipole moment (field-independent basis, Debye):
    X=             -0.9912    Y=              5.3059    Z=              1.5259  Tot=              5.6092
 Quadrupole moment (field-independent basis, Debye-Ang):
   XX=           -192.0641   YY=           -207.5148   ZZ=           -213.4593
   XY=             -0.0192   XZ=             -0.3689   YZ=              1.6028

 Normal termination of Gaussian 09 at Wed Apr  8 23:49:11 2020.
