 Gaussian 09, Revision A.02,
 Gaussian 09:  EM64L-G09RevA.02 11-Jun-2009

 --------------------------------------------------
 #P opt=(,maxcycle=400) wB97XD/6-31G* MaxDisk=100GB
 --------------------------------------------------

 -----------------------------------------------------------------
 MOLECULE0 Rotatable Bond Optimization on g2-node38.bme.utexas.edu
 -----------------------------------------------------------------
 Symbolic Z-matrix:
 Charge =  0 Multiplicity = 1

 SCF Done:  E(RwB97XD) =  -1581.44515020     A.U. after   16 cycles
 SCF Done:  E(RwB97XD) =  -1581.51873015     A.U. after   13 cycles
 SCF Done:  E(RwB97XD) =  -1581.63972349     A.U. after   14 cycles
 SCF Done:  E(RwB97XD) =  -1581.70899652     A.U. after   14 cycles
 SCF Done:  E(RwB97XD) =  -1581.72620677     A.U. after   17 cycles
 SCF Done:  E(RwB97XD) =  -1581.72304100     A.U. after   16 cycles
 SCF Done:  E(RwB97XD) =  -1581.74015057     A.U. after   14 cycles
 SCF Done:  E(RwB97XD) =  -1581.75231799     A.U. after   14 cycles
 SCF Done:  E(RwB97XD) =  -1581.75804733     A.U. after   14 cycles
 SCF Done:  E(RwB97XD) =  -1581.76076775     A.U. after   14 cycles
 SCF Done:  E(RwB97XD) =  -1581.76423881     A.U. after   12 cycles
 SCF Done:  E(RwB97XD) =  -1581.76426095     A.U. after   12 cycles
 SCF Done:  E(RwB97XD) =  -1581.76428058     A.U. after   11 cycles
 SCF Done:  E(RwB97XD) =  -1581.76427845     A.U. after   12 cycles
 SCF Done:  E(RwB97XD) =  -1581.76428389     A.U. after   11 cycles
 SCF Done:  E(RwB97XD) =  -1581.76428446     A.U. after    8 cycles
 SCF Done:  E(RwB97XD) =  -1581.76428475     A.U. after    8 cycles
 SCF Done:  E(RwB97XD) =  -1581.76428543     A.U. after    8 cycles
 SCF Done:  E(RwB97XD) =  -1581.76428535     A.U. after    7 cycles
 SCF Done:  E(RwB97XD) =  -1581.76428526     A.U. after    7 cycles
 Optimization completed.
    -- Stationary point found.

                         Standard orientation:
 ---------------------------------------------------------------------
 Center     Atomic      Atomic             Coordinates (Angstroms)
 Number     Number       Type             X           Y           Z
 ---------------------------------------------------------------------
      1          6           0        0.099052    4.430158   -0.567843
      2          6           0        1.449827    4.329184   -0.257877
      3          6           0        2.095514    3.107389   -0.439659
      4          6           0        1.333375    2.044133   -0.942147
      5          7           0        0.036657    2.123591   -1.233562
      6          6           0       -0.563248    3.302308   -1.041238
      7          6           0        3.519496    2.879692   -0.088423
      8          6           0        4.471182    3.891061    0.010490
      9          6           0        5.754172    3.490421    0.380978
     10          7           0        6.095494    2.230814    0.617387
     11          6           0        5.104084    1.328683    0.471025
     12          7           0        3.842815    1.605225    0.143385
     13          7           0        5.471387    0.029730    0.691982
     14          6           0        4.739146   -1.158889    0.506942
     15          6           0        5.454107   -2.364087    0.359256
     16          6           0        4.720229   -3.528732    0.154318
     17          6           0        3.330045   -3.552320    0.071552
     18          6           0        2.644370   -2.349830    0.225449
     19          6           0        3.348869   -1.170524    0.470880
     20          7           0        1.248815   -2.208120    0.128956
     21          6           0        0.305891   -3.128877   -0.250265
     22          6           0       -1.067772   -2.549910   -0.439930
     23          6           0       -1.295229   -1.221913   -0.817604
     24          6           0       -2.590297   -0.748308   -0.974810
     25          6           0       -3.685837   -1.584976   -0.756185
     26          6           0       -3.454548   -2.911539   -0.390705
     27          6           0       -2.159935   -3.395395   -0.246543
     28          6           0       -5.095464   -1.066834   -0.949262
     29          7           0       -5.252861    0.294149   -0.453488
     30          6           0       -5.128228    0.412424    1.002164
     31          6           0       -6.380610   -0.067589    1.750034
     32          7           0       -7.610051    0.579669    1.293828
     33          6           0       -7.767564    1.937118    1.784816
     34          6           0       -7.730978    0.463886   -0.157985
     35          6           0       -6.479800    0.947465   -0.907548
     36          8           0        0.537019   -4.317110   -0.407071
     37          6           0        6.960752   -2.392609    0.405084
     38          1           0       -0.436685    5.363264   -0.430226
     39          1           0        1.983022    5.184645    0.146841
     40          1           0        1.813113    1.084796   -1.116488
     41          1           0       -1.624731    3.342029   -1.274321
     42          1           0        4.248896    4.930199   -0.197916
     43          1           0        6.549120    4.225861    0.487852
     44          1           0        6.456821   -0.062624    0.888380
     45          1           0        5.259395   -4.465391    0.036985
     46          1           0        2.791056   -4.470838   -0.112387
     47          1           0        2.813924   -0.241610    0.601221
     48          1           0        0.906888   -1.277240    0.314909
     49          1           0       -0.478843   -0.536741   -1.032343
     50          1           0       -2.758856    0.285315   -1.259291
     51          1           0       -4.297909   -3.575280   -0.214655
     52          1           0       -1.976603   -4.429987    0.024672
     53          1           0       -5.315096   -1.043259   -2.024858
     54          1           0       -5.803589   -1.792302   -0.510286
     55          1           0       -4.245617   -0.146371    1.329352
     56          1           0       -4.940481    1.469606    1.231606
     57          1           0       -6.268403    0.102150    2.826939
     58          1           0       -6.501513   -1.150257    1.609721
     59          1           0       -7.000403    2.656581    1.446929
     60          1           0       -7.751004    1.925263    2.879924
     61          1           0       -8.743549    2.321510    1.469328
     62          1           0       -8.614787    1.023344   -0.486044
     63          1           0       -7.914271   -0.593203   -0.394683
     64          1           0       -6.354389    2.028131   -0.756428
     65          1           0       -6.591763    0.785807   -1.985832
     66          1           0        7.354039   -2.067746    1.378241
     67          1           0        7.404804   -1.747475   -0.363942
     68          1           0        7.331852   -3.406247    0.234161
 ---------------------------------------------------------------------

 The electronic state is 1-A.
 Alpha  occ. eigenvalues --  -19.23142 -14.49088 -14.48248 -14.46429 -14.45934
 Alpha  occ. eigenvalues --  -14.45554 -14.44103 -14.43655 -10.41589 -10.39893
 Alpha  occ. eigenvalues --  -10.37440 -10.36188 -10.34998 -10.34761 -10.34485
 Alpha  occ. eigenvalues --  -10.33946 -10.33923 -10.33369 -10.32607 -10.32385
 Alpha  occ. eigenvalues --  -10.31700 -10.31600 -10.31418 -10.31279 -10.31178
 Alpha  occ. eigenvalues --  -10.31107 -10.30685 -10.30534 -10.30245 -10.30151
 Alpha  occ. eigenvalues --  -10.29925 -10.29873 -10.29807 -10.29418 -10.29301
 Alpha  occ. eigenvalues --  -10.28761 -10.28208  -1.13267  -1.12140  -1.06043
 Alpha  occ. eigenvalues --   -1.04469  -1.04387  -1.03398  -1.00553  -1.00018
 Alpha  occ. eigenvalues --   -0.95689  -0.94520  -0.92873  -0.89563  -0.87952
 Alpha  occ. eigenvalues --   -0.87191  -0.86212  -0.85604  -0.84127  -0.83620
 Alpha  occ. eigenvalues --   -0.81645  -0.79635  -0.78096  -0.77977  -0.76153
 Alpha  occ. eigenvalues --   -0.73637  -0.73527  -0.72817  -0.72487  -0.70962
 Alpha  occ. eigenvalues --   -0.69939  -0.69635  -0.67834  -0.66216  -0.64977
 Alpha  occ. eigenvalues --   -0.63774  -0.63199  -0.61958  -0.61584  -0.59869
 Alpha  occ. eigenvalues --   -0.58660  -0.58473  -0.57425  -0.56519  -0.55949
 Alpha  occ. eigenvalues --   -0.55693  -0.55463  -0.55032  -0.54956  -0.54325
 Alpha  occ. eigenvalues --   -0.53736  -0.53605  -0.52982  -0.52468  -0.51999
 Alpha  occ. eigenvalues --   -0.51530  -0.51388  -0.51068  -0.50968  -0.50440
 Alpha  occ. eigenvalues --   -0.50263  -0.49886  -0.49564  -0.49366  -0.47997
 Alpha  occ. eigenvalues --   -0.47838  -0.47128  -0.46880  -0.46466  -0.46050
 Alpha  occ. eigenvalues --   -0.45872  -0.45630  -0.44381  -0.43794  -0.43288
 Alpha  occ. eigenvalues --   -0.43210  -0.42640  -0.42006  -0.41949  -0.41510
 Alpha  occ. eigenvalues --   -0.41213  -0.40758  -0.39820  -0.38005  -0.37400
 Alpha  occ. eigenvalues --   -0.35506  -0.35075  -0.33814  -0.33285  -0.33130
 Alpha  occ. eigenvalues --   -0.32461  -0.32292  -0.31030  -0.28993  -0.26964
 Alpha  occ. eigenvalues --   -0.25780
 Alpha virt. eigenvalues --   -0.00142   0.03120   0.03718   0.04762   0.07061
 Alpha virt. eigenvalues --    0.07525   0.08521   0.10522   0.14996   0.15192
 Alpha virt. eigenvalues --    0.15559   0.16397   0.17339   0.17525   0.18783

 Mulliken atomic charges:
              1
     1  C   -0.199126
     2  C   -0.155378
     3  C    0.033456
     4  C    0.007519
     5  N   -0.433881
     6  C    0.030964
     7  C    0.296788
     8  C   -0.254348
     9  C    0.048130
    10  N   -0.492593
    11  C    0.708714
    12  N   -0.567697
    13  N   -0.796337
    14  C    0.288246
    15  C    0.120596
    16  C   -0.240206
    17  C   -0.190691
    18  C    0.356081
    19  C   -0.265301
    20  N   -0.766383
    21  C    0.596830
    22  C    0.018241
    23  C   -0.214557
    24  C   -0.199812
    25  C    0.113490
    26  C   -0.222876
    27  C   -0.181350
    28  C   -0.219850
    29  N   -0.402548
    30  C   -0.192321
    31  C   -0.187536
    32  N   -0.384168
    33  C   -0.349857
    34  C   -0.187277
    35  C   -0.184785
    36  O   -0.517548
    37  C   -0.607035
    38  H    0.185021
    39  H    0.184988
    40  H    0.200687
    41  H    0.186592
    42  H    0.179890
    43  H    0.188685
    44  H    0.368471
    45  H    0.160399
    46  H    0.215718
    47  H    0.194149
    48  H    0.359387
    49  H    0.187557
    50  H    0.185487
    51  H    0.162912
    52  H    0.195704
    53  H    0.179151
    54  H    0.139772
    55  H    0.175445
    56  H    0.158574
    57  H    0.160224
    58  H    0.162579
    59  H    0.133388
    60  H    0.169607
    61  H    0.168544
    62  H    0.158644
    63  H    0.163068
    64  H    0.159937
    65  H    0.159200
    66  H    0.177215
    67  H    0.183306
    68  H    0.190101
 Sum of Mulliken atomic charges =   0.00000

 Dipole moment (field-independent basis, Debye):
    X=              0.0146    Y=              6.8612    Z=              0.7354  Tot=              6.9005
 Quadrupole moment (field-independent basis, Debye-Ang):
   XX=           -190.9273   YY=           -200.8666   ZZ=           -219.8823
   XY=              1.9767   XZ=              4.7831   YZ=             -1.9344

 Normal termination of Gaussian 09 at Wed Mar 11 01:23:31 2020.
