 Gaussian 09, Revision A.02,
 Gaussian 09:  EM64L-G09RevA.02 11-Jun-2009

 --------------------------------------------------
 #P opt=(,maxcycle=400) wB97XD/6-31G* MaxDisk=100GB
 --------------------------------------------------

 --------------------------------------------------------------
 MOLECULE0 Rotatable Bond Optimization on node37.bme.utexas.edu
 --------------------------------------------------------------
 Symbolic Z-matrix:
 Charge =  0 Multiplicity = 1

 SCF Done:  E(RwB97XD) =  -1581.54308019     A.U. after   16 cycles
 SCF Done:  E(RwB97XD) =  -1581.61027724     A.U. after   13 cycles
 SCF Done:  E(RwB97XD) =  -1581.70912277     A.U. after   14 cycles
 SCF Done:  E(RwB97XD) =  -1581.74455010     A.U. after   17 cycles
 SCF Done:  E(RwB97XD) =  -1581.75725885     A.U. after   17 cycles
 SCF Done:  E(RwB97XD) =  -1581.75998254     A.U. after   17 cycles
 SCF Done:  E(RwB97XD) =  -1581.76205115     A.U. after   14 cycles
 SCF Done:  E(RwB97XD) =  -1581.76081074     A.U. after   16 cycles
 SCF Done:  E(RwB97XD) =  -1581.76253065     A.U. after   14 cycles
 SCF Done:  E(RwB97XD) =  -1581.76165721     A.U. after   14 cycles
 SCF Done:  E(RwB97XD) =  -1581.76298017     A.U. after   14 cycles
 SCF Done:  E(RwB97XD) =  -1581.76288252     A.U. after   14 cycles
 SCF Done:  E(RwB97XD) =  -1581.76310738     A.U. after   13 cycles
 SCF Done:  E(RwB97XD) =  -1581.76318996     A.U. after   12 cycles
 SCF Done:  E(RwB97XD) =  -1581.76319871     A.U. after   12 cycles
 SCF Done:  E(RwB97XD) =  -1581.76321019     A.U. after   12 cycles
 SCF Done:  E(RwB97XD) =  -1581.76321464     A.U. after   10 cycles
 SCF Done:  E(RwB97XD) =  -1581.76321511     A.U. after   10 cycles
 SCF Done:  E(RwB97XD) =  -1581.76321643     A.U. after    8 cycles
 SCF Done:  E(RwB97XD) =  -1581.76321596     A.U. after    7 cycles
 Optimization completed.
    -- Stationary point found.

                         Standard orientation:
 ---------------------------------------------------------------------
 Center     Atomic      Atomic             Coordinates (Angstroms)
 Number     Number       Type             X           Y           Z
 ---------------------------------------------------------------------
      1          6           0       -0.473387    4.275521   -0.772538
      2          6           0        0.871144    4.192803   -0.431288
      3          6           0        1.547250    2.990431   -0.631346
      4          6           0        0.820471    1.926063   -1.181318
      5          7           0       -0.468487    1.989856   -1.510407
      6          6           0       -1.097081    3.150261   -1.300409
      7          6           0        2.969108    2.789206   -0.253683
      8          6           0        3.900379    3.819069   -0.155472
      9          6           0        5.186363    3.446545    0.234252
     10          7           0        5.545526    2.197311    0.496289
     11          6           0        4.571840    1.275009    0.355228
     12          7           0        3.311692    1.523675   -0.000956
     13          7           0        4.960444   -0.010895    0.614579
     14          6           0        4.244912   -1.217038    0.495390
     15          6           0        4.968882   -2.426586    0.479457
     16          6           0        4.248442   -3.609444    0.337559
     17          6           0        2.862653   -3.650818    0.195004
     18          6           0        2.171159   -2.443406    0.217744
     19          6           0        2.859322   -1.243450    0.394974
     20          7           0        0.784551   -2.305618    0.040248
     21          6           0       -0.155193   -3.232771   -0.330956
     22          6           0       -1.474682   -2.601329   -0.675159
     23          6           0       -1.549640   -1.358181   -1.310355
     24          6           0       -2.781904   -0.778808   -1.574199
     25          6           0       -3.965367   -1.410064   -1.191483
     26          6           0       -3.883825   -2.677657   -0.608254
     27          6           0       -2.653765   -3.274713   -0.358010
     28          6           0       -5.302353   -0.704184   -1.348558
     29          7           0       -5.692438    0.226024   -0.299855
     30          6           0       -5.025619    1.522768   -0.247802
     31          6           0       -3.815684    1.577821    0.702691
     32          7           0       -4.113016    1.069032    2.038779
     33          6           0       -4.901777    1.978197    2.851093
     34          6           0       -4.679158   -0.274386    1.939896
     35          6           0       -5.914188   -0.340176    1.026077
     36          8           0        0.037043   -4.436552   -0.365502
     37          6           0        6.471695   -2.442163    0.598735
     38          1           0       -1.032557    5.192473   -0.620623
     39          1           0        1.376429    5.046193    0.011750
     40          1           0        1.324306    0.980387   -1.364416
     41          1           0       -2.152042    3.177129   -1.564752
     42          1           0        3.661558    4.850722   -0.382153
     43          1           0        5.968136    4.196586    0.336300
     44          1           0        5.941879   -0.077024    0.839587
     45          1           0        4.796807   -4.548038    0.323670
     46          1           0        2.333856   -4.584893    0.063737
     47          1           0        2.314156   -0.312145    0.421241
     48          1           0        0.445762   -1.359334    0.132263
     49          1           0       -0.653098   -0.833034   -1.626702
     50          1           0       -2.809717    0.190701   -2.065003
     51          1           0       -4.798620   -3.197494   -0.332109
     52          1           0       -2.590220   -4.257367    0.098725
     53          1           0       -5.307924   -0.148930   -2.294337
     54          1           0       -6.094747   -1.459968   -1.423149
     55          1           0       -4.723906    1.804167   -1.263893
     56          1           0       -5.766974    2.267820    0.078179
     57          1           0       -3.458366    2.611710    0.792156
     58          1           0       -2.990837    0.982508    0.295526
     59          1           0       -5.911864    2.205829    2.467118
     60          1           0       -4.364041    2.927569    2.951211
     61          1           0       -5.017472    1.551358    3.853335
     62          1           0       -4.937692   -0.622873    2.947217
     63          1           0       -3.897327   -0.937821    1.552452
     64          1           0       -6.742961    0.208294    1.498059
     65          1           0       -6.247875   -1.378017    0.915219
     66          1           0        6.817299   -2.031003    1.557113
     67          1           0        6.951668   -1.865212   -0.202440
     68          1           0        6.852156   -3.464678    0.534379
 ---------------------------------------------------------------------

 The electronic state is 1-A.
 Alpha  occ. eigenvalues --  -19.23412 -14.49281 -14.48321 -14.46751 -14.46096
 Alpha  occ. eigenvalues --  -14.45764 -14.43616 -14.43135 -10.41777 -10.40081
 Alpha  occ. eigenvalues --  -10.37615 -10.36338 -10.35324 -10.35084 -10.34623
 Alpha  occ. eigenvalues --  -10.34135 -10.34017 -10.33622 -10.32863 -10.32367
 Alpha  occ. eigenvalues --  -10.31860 -10.31492 -10.31179 -10.30935 -10.30707
 Alpha  occ. eigenvalues --  -10.30687 -10.30676 -10.30585 -10.30533 -10.30403
 Alpha  occ. eigenvalues --  -10.30377 -10.30220 -10.30021 -10.29974 -10.29575
 Alpha  occ. eigenvalues --  -10.28741 -10.28405  -1.13444  -1.12295  -1.06322
 Alpha  occ. eigenvalues --   -1.04565  -1.03828  -1.03634  -1.00715  -0.99557
 Alpha  occ. eigenvalues --   -0.96085  -0.94671  -0.93098  -0.89777  -0.88124
 Alpha  occ. eigenvalues --   -0.87388  -0.86228  -0.85399  -0.84541  -0.83782
 Alpha  occ. eigenvalues --   -0.81888  -0.79581  -0.78270  -0.77798  -0.76320
 Alpha  occ. eigenvalues --   -0.73881  -0.73300  -0.73024  -0.72621  -0.70870
 Alpha  occ. eigenvalues --   -0.70314  -0.69614  -0.68039  -0.66413  -0.65150
 Alpha  occ. eigenvalues --   -0.63656  -0.63409  -0.62228  -0.61762  -0.60211
 Alpha  occ. eigenvalues --   -0.58847  -0.58045  -0.57569  -0.56611  -0.56100
 Alpha  occ. eigenvalues --   -0.55817  -0.55236  -0.55134  -0.54964  -0.54255
 Alpha  occ. eigenvalues --   -0.53867  -0.53239  -0.53154  -0.52612  -0.52174
 Alpha  occ. eigenvalues --   -0.51912  -0.51509  -0.51370  -0.50999  -0.50575
 Alpha  occ. eigenvalues --   -0.50364  -0.50117  -0.49974  -0.49497  -0.48335
 Alpha  occ. eigenvalues --   -0.47218  -0.46906  -0.46619  -0.46319  -0.46210
 Alpha  occ. eigenvalues --   -0.45761  -0.45235  -0.44797  -0.44045  -0.43932
 Alpha  occ. eigenvalues --   -0.43327  -0.43016  -0.42141  -0.41766  -0.41439
 Alpha  occ. eigenvalues --   -0.40964  -0.40777  -0.39912  -0.38187  -0.37592
 Alpha  occ. eigenvalues --   -0.35821  -0.35293  -0.34001  -0.33446  -0.33373
 Alpha  occ. eigenvalues --   -0.32818  -0.31903  -0.30771  -0.29115  -0.27080
 Alpha  occ. eigenvalues --   -0.24995
 Alpha virt. eigenvalues --   -0.00292   0.02873   0.03587   0.04481   0.06434
 Alpha virt. eigenvalues --    0.07258   0.08203   0.10369   0.13888   0.14813
 Alpha virt. eigenvalues --    0.15728   0.16386   0.17252   0.17441   0.18251

 Mulliken atomic charges:
              1
     1  C   -0.197845
     2  C   -0.154408
     3  C    0.035505
     4  C    0.009614
     5  N   -0.437530
     6  C    0.035736
     7  C    0.295140
     8  C   -0.254749
     9  C    0.049016
    10  N   -0.493027
    11  C    0.714258
    12  N   -0.568364
    13  N   -0.801919
    14  C    0.291401
    15  C    0.119886
    16  C   -0.240379
    17  C   -0.191307
    18  C    0.358073
    19  C   -0.269644
    20  N   -0.757916
    21  C    0.585681
    22  C    0.015186
    23  C   -0.205322
    24  C   -0.217883
    25  C    0.155949
    26  C   -0.223070
    27  C   -0.178387
    28  C   -0.263550
    29  N   -0.382217
    30  C   -0.183891
    31  C   -0.181784
    32  N   -0.385722
    33  C   -0.349275
    34  C   -0.182617
    35  C   -0.186517
    36  O   -0.513254
    37  C   -0.607386
    38  H    0.186140
    39  H    0.186726
    40  H    0.198101
    41  H    0.179045
    42  H    0.180742
    43  H    0.189492
    44  H    0.369206
    45  H    0.160821
    46  H    0.213090
    47  H    0.199344
    48  H    0.361556
    49  H    0.185462
    50  H    0.172058
    51  H    0.163614
    52  H    0.195593
    53  H    0.170274
    54  H    0.168913
    55  H    0.148145
    56  H    0.158368
    57  H    0.141663
    58  H    0.174890
    59  H    0.135264
    60  H    0.164120
    61  H    0.167870
    62  H    0.153488
    63  H    0.172924
    64  H    0.159396
    65  H    0.154997
    66  H    0.178050
    67  H    0.182743
    68  H    0.190424
 Sum of Mulliken atomic charges =   0.00000

 Dipole moment (field-independent basis, Debye):
    X=              0.5807    Y=              6.5722    Z=              0.4311  Tot=              6.6119
 Quadrupole moment (field-independent basis, Debye-Ang):
   XX=           -193.2947   YY=           -202.5012   ZZ=           -220.4861
   XY=              3.1095   XZ=             -1.2941   YZ=             -5.2375

 Normal termination of Gaussian 09 at Wed Apr  8 23:40:27 2020.
