                               Psi4 1.3.2 release

  ==> Input File <==

--------------------------------------------------------------------------
molecule {
0 1
 C   -0.890720    4.236803   -0.084968
 C    0.477264    4.316486    0.208037
 C    1.285760    3.167328    0.107719
 C    0.627799    1.985640   -0.314463
 N   -0.677463    1.889318   -0.600412
 C   -1.417860    3.002943   -0.482440
 C    2.766936    3.154904    0.394601
 C    3.550486    4.288850    0.665863
 C    4.917820    4.055037    0.855695
 N    5.489178    2.853618    0.801770
 C    4.660231    1.819471    0.553798
 N    3.345768    1.940319    0.359848
 N    5.261136    0.573004    0.507062
 C    4.767773   -0.749800    0.213784
 C    5.686840   -1.784826   -0.136887
 C    5.148666   -3.041979   -0.461059
 C    3.779408   -3.333808   -0.451832
 C    2.892607   -2.327492   -0.055602
 C    3.403022   -1.060258    0.267997
 N    1.469694   -2.451179    0.029349
 C    0.607031   -3.448098   -0.367357
 C   -0.872068   -3.104958   -0.366808
 C   -1.366757   -1.816298   -0.625796
 C   -2.731126   -1.544355   -0.509454
 C   -3.665650   -2.536808   -0.163263
 C   -3.161472   -3.848455   -0.020561
 C   -1.795311   -4.130708   -0.109802
 C   -5.167927   -2.282269    0.027122
 N   -5.824062   -1.102877    0.637672
 C   -6.988878   -0.500442   -0.059225
 C   -6.671560    0.716765   -0.962676
 N   -5.943765    1.805000   -0.264792
 C   -6.754789    2.725640    0.540534
 C   -4.743476    1.224334    0.378055
 C   -5.038039   -0.013901    1.267084
 O    0.990046   -4.561349   -0.692671
 C    7.190053   -1.574636   -0.207090
 H   -1.533507    5.109156   -0.012858
 H    0.886356    5.274330    0.519997
 H    1.189234    1.067533   -0.457148
 H   -2.473090    2.896115   -0.728844
 H    3.170276    5.302043    0.708340
 H    5.615752    4.866758    1.058622
 H    6.257057    0.677197    0.629522
 H    5.822762   -3.847464   -0.749863
 H    3.402896   -4.311808   -0.725196
 H    2.722624   -0.284756    0.579267
 H    1.008747   -1.620282    0.371942
 H   -0.682749   -1.015639   -0.898964
 H   -3.053116   -0.536632   -0.740536
 H   -3.841881   -4.671219    0.200215
 H   -1.425273   -5.142246    0.037915
 H   -5.599842   -2.318108   -0.984172
 H   -5.529480   -3.145952    0.604841
 H   -7.665123   -1.522350   -0.846270
 H   -7.931316   -0.077073    0.955704
 H   -7.670058    1.158700   -1.453216
 H   -5.769150    0.235337   -2.098730
 H   -7.212878    2.204612    1.388653
 H   -7.548193    3.166283   -0.074077
 H   -6.132359    3.543141    0.922226
 H   -4.141700    2.216944    1.185153
 H   -4.127461    1.025361   -0.304225
 H   -5.887750    0.493677    2.433572
 H   -4.042414   -0.449218    1.754220
 H    7.621706   -1.275960    0.758855
 H    7.444731   -0.794104   -0.929533
 H    7.727833   -2.474225   -0.517546
}
memory 20GB
set_num_threads(6)
psi4_io.set_default_path("/scratch/bdw2292")
set freeze_core True
E, wfn = energy('mp2/6-311+G*',return_wfn=True)
oeprop(wfn,"WIBERG_LOWDIN_INDICES")
clean()
--------------------------------------------------------------------------

    Molecular point group: c1

    Geometry (in Angstrom), charge = 0, multiplicity = 1:

       Center              X                  Y                   Z               Mass
    ------------   -----------------  -----------------  -----------------  -----------------
         C           -0.942983012974     4.275127998004    -0.111997314642    12.000000000000
         C            0.425000987026     4.354810998004     0.181007685358    12.000000000000
         C            1.233496987026     3.205652998004     0.080689685358    12.000000000000
         C            0.575535987026     2.023964998004    -0.341492314642    12.000000000000
         N           -0.729726012974     1.927642998004    -0.627441314642    14.003074004430
         C           -1.470123012974     3.041267998004    -0.509469314642    12.000000000000
         C            2.714672987026     3.193228998004     0.367571685358    12.000000000000
         C            3.498222987026     4.327174998004     0.638833685358    12.000000000000
         C            4.865556987026     4.093361998004     0.828665685358    12.000000000000
         N            5.436914987026     2.891942998004     0.774740685358    14.003074004430
         C            4.607967987026     1.857795998004     0.526768685358    12.000000000000
         N            3.293504987026     1.978643998004     0.332818685358    14.003074004430
         N            5.208872987026     0.611328998004     0.480032685358    14.003074004430
         C            4.715509987026    -0.711475001996     0.186754685358    12.000000000000
         C            5.634576987026    -1.746501001996    -0.163916314642    12.000000000000
         C            5.096402987026    -3.003654001996    -0.488088314642    12.000000000000
         C            3.727144987026    -3.295483001996    -0.478861314642    12.000000000000
         C            2.840343987026    -2.289167001996    -0.082631314642    12.000000000000
         C            3.350758987026    -1.021933001996     0.240967685358    12.000000000000
         N            1.417430987026    -2.412854001996     0.002319685358    14.003074004430
         C            0.554767987026    -3.409773001996    -0.394386314642    12.000000000000
         C           -0.924331012974    -3.066633001996    -0.393837314642    12.000000000000
         C           -1.419020012974    -1.777973001996    -0.652825314642    12.000000000000
         C           -2.783389012974    -1.506030001996    -0.536483314642    12.000000000000
         C           -3.717913012974    -2.498483001996    -0.190292314642    12.000000000000
         C           -3.213735012974    -3.810130001996    -0.047590314642    12.000000000000
         C           -1.847574012974    -4.092383001996    -0.136831314642    12.000000000000
         C           -5.220190012974    -2.243944001996     0.000092685358    12.000000000000
         N           -5.876325012974    -1.064552001996     0.610642685358    14.003074004430
         C           -7.041141012974    -0.462117001996    -0.086254314642    12.000000000000
         C           -6.723823012974     0.755089998004    -0.989705314642    12.000000000000
         N           -5.996028012974     1.843324998004    -0.291821314642    14.003074004430
         C           -6.807052012974     2.763964998004     0.513504685358    12.000000000000
         C           -4.795739012974     1.262658998004     0.351025685358    12.000000000000
         C           -5.090302012974     0.024423998004     1.240054685358    12.000000000000
         O            0.937782987026    -4.523024001996    -0.719700314642    15.994914619570
         C            7.137789987026    -1.536311001996    -0.234119314642    12.000000000000
         H           -1.585770012974     5.147480998004    -0.039887314642     1.007825032230
         H            0.834092987026     5.312654998004     0.492967685358     1.007825032230
         H            1.136970987026     1.105857998004    -0.484177314642     1.007825032230
         H           -2.525353012974     2.934439998004    -0.755873314642     1.007825032230
         H            3.118012987026     5.340367998004     0.681310685358     1.007825032230
         H            5.563488987026     4.905082998004     1.031592685358     1.007825032230
         H            6.204793987026     0.715521998004     0.602492685358     1.007825032230
         H            5.770498987026    -3.809139001996    -0.776892314642     1.007825032230
         H            3.350632987026    -4.273483001996    -0.752225314642     1.007825032230
         H            2.670360987026    -0.246431001996     0.552237685358     1.007825032230
         H            0.956483987026    -1.581957001996     0.344912685358     1.007825032230
         H           -0.735012012974    -0.977314001996    -0.925993314642     1.007825032230
         H           -3.105379012974    -0.498307001996    -0.767565314642     1.007825032230
         H           -3.894144012974    -4.632894001996     0.173185685358     1.007825032230
         H           -1.477536012974    -5.103921001996     0.010885685358     1.007825032230
         H           -5.652105012974    -2.279783001996    -1.011201314642     1.007825032230
         H           -5.581743012974    -3.107627001996     0.577811685358     1.007825032230
         H           -7.717386012974    -1.484025001996    -0.873299314642     1.007825032230
         H           -7.983579012974    -0.038748001996     0.928674685358     1.007825032230
         H           -7.722321012974     1.197024998004    -1.480245314642     1.007825032230
         H           -5.821413012974     0.273661998004    -2.125759314642     1.007825032230
         H           -7.265141012974     2.242936998004     1.361623685358     1.007825032230
         H           -7.600456012974     3.204607998004    -0.101106314642     1.007825032230
         H           -6.184622012974     3.581465998004     0.895196685358     1.007825032230
         H           -4.193963012974     2.255268998004     1.158123685358     1.007825032230
         H           -4.179724012974     1.063685998004    -0.331254314642     1.007825032230
         H           -5.940013012974     0.532001998004     2.406542685358     1.007825032230
         H           -4.094677012974    -0.410893001996     1.727190685358     1.007825032230
         H            7.569442987026    -1.237635001996     0.731825685358     1.007825032230
         H            7.392467987026    -0.755779001996    -0.956562314642     1.007825032230
         H            7.675569987026    -2.435900001996    -0.544575314642     1.007825032230

  Charge       = 0
  Multiplicity = 1
  Basis Set: 6-311+G*
    Blend: 6-311+G*
  Basis Set: (6-311+G* AUX)
    Blend: HEAVY-AUG-CC-PVTZ-JKFIT

    Orbital Energies [Eh]
    ---------------------

    Doubly Occupied:

       1A    -20.521834     2A    -15.604307     3A    -15.602347
       4A    -15.586156     5A    -15.576597     6A    -15.573240
       7A    -15.568216     8A    -15.566721     9A    -11.374582
      10A    -11.365145    11A    -11.341664    12A    -11.334417
      13A    -11.326630    14A    -11.317952    15A    -11.313984
      16A    -11.301925    17A    -11.300450    18A    -11.299850
      19A    -11.293344    20A    -11.289381    21A    -11.284818
      22A    -11.279615    23A    -11.279492    24A    -11.268942
      25A    -11.264802    26A    -11.256535    27A    -11.255739
      28A    -11.254356    29A    -11.252707    30A    -11.251317
      31A    -11.248210    32A    -11.247119    33A    -11.245608
      34A    -11.240592    35A    -11.234199    36A    -11.231809
      37A    -11.225610    38A     -1.386294    39A     -1.345046
      40A     -1.277752    41A     -1.252803    42A     -1.252153
      43A     -1.242285    44A     -1.209355    45A     -1.207776
      46A     -1.164162    47A     -1.140331    48A     -1.115737
      49A     -1.075296    50A     -1.062073    51A     -1.048161
      52A     -1.038711    53A     -1.024880    54A     -1.011271
      55A     -1.008374    56A     -0.982867    57A     -0.951831
      58A     -0.934766    59A     -0.926102    60A     -0.901081
      61A     -0.872506    62A     -0.869543    63A     -0.857962
      64A     -0.845068    65A     -0.841592    66A     -0.837544
      67A     -0.826390    68A     -0.807493    69A     -0.779698
      70A     -0.755040    71A     -0.740036    72A     -0.732491
      73A     -0.730154    74A     -0.721719    75A     -0.698882
      76A     -0.683077    77A     -0.670849    78A     -0.666011
      79A     -0.657518    80A     -0.655244    81A     -0.653009
      82A     -0.647790    83A     -0.638710    84A     -0.636908
      85A     -0.630578    86A     -0.622711    87A     -0.615578
      88A     -0.614360    89A     -0.609332    90A     -0.603722
      91A     -0.602338    92A     -0.596573    93A     -0.595434
      94A     -0.592736    95A     -0.587488    96A     -0.583328
      97A     -0.581161    98A     -0.577914    99A     -0.566984
     100A     -0.561988   101A     -0.560757   102A     -0.548934
     103A     -0.544505   104A     -0.537236   105A     -0.524492
     106A     -0.519243   107A     -0.514752   108A     -0.512608
     109A     -0.509185   110A     -0.502119   111A     -0.499550
     112A     -0.492395   113A     -0.484933   114A     -0.479355
     115A     -0.456379   116A     -0.451546   117A     -0.442572
     118A     -0.435487   119A     -0.427785   120A     -0.426086
     121A     -0.416702   122A     -0.414041   123A     -0.399735
     124A     -0.388724   125A     -0.373186   126A     -0.346172
     127A     -0.345421   128A     -0.342795   129A     -0.320344
     130A     -0.313835   131A     -0.290103

  @DF-RHF Final Energy: -1572.22649001440436

   => Energetics <=

    Nuclear Repulsion Energy =           3732.6293857059886250
    One-Electron Energy =               -9562.6562596398143796
    Two-Electron Energy =                4257.8003839194216198
    Total Energy =                      -1572.2264900144045896

  Dipole Moment: [D]
     X:    -0.8369      Y:     6.7881      Z:     1.1011     Total:     6.9275

  Basis Set: (6-311+G* AUX)
    Blend: HEAVY-AUG-CC-PVTZ-RI
	 Reference Energy          =   -1572.2264900144043622 [Eh]
	 Singles Energy            =      -0.0000000000000000 [Eh]
	 Same-Spin Energy          =      -1.4481114585130581 [Eh]
	 Opposite-Spin Energy      =      -3.8940089649240419 [Eh]
	 Correlation Energy        =      -5.3421204234371000 [Eh]
	 Total Energy              =   -1577.5686104378414711 [Eh]

	 ================> DF-SCS-MP2 Energies <==================
	-----------------------------------------------------------
	 SCS Same-Spin Scale       =       0.3333333333333333 [-]
	 SCS Opposite-Spin Scale   =       1.2000000000000000 [-]
	 SCS Same-Spin Energy      =      -0.4827038195043527 [Eh]
	 SCS Opposite-Spin Energy  =      -4.6728107579088505 [Eh]
	 SCS Correlation Energy    =      -5.1555145774132036 [Eh]
	 SCS Total Energy          =   -1577.3820045918175765 [Eh]
	-----------------------------------------------------------

*** Psi4 exiting successfully. Buy a developer a beer!
