 Gaussian 09, Revision A.02,
 Gaussian 09:  EM64L-G09RevA.02 11-Jun-2009

 --------------------------------------------------
 #P opt=(,maxcycle=400) wB97XD/6-31G* MaxDisk=100GB
 --------------------------------------------------

 -----------------------------------------------------------------
 MOLECULE0 Rotatable Bond Optimization on g2-node38.bme.utexas.edu
 -----------------------------------------------------------------
 Symbolic Z-matrix:
 Charge =  0 Multiplicity = 1

 SCF Done:  E(RwB97XD) =  -1581.50758253     A.U. after   16 cycles
 SCF Done:  E(RwB97XD) =  -1581.56810156     A.U. after   13 cycles
 SCF Done:  E(RwB97XD) =  -1581.66779128     A.U. after   14 cycles
 SCF Done:  E(RwB97XD) =  -1581.71965873     A.U. after   14 cycles
 SCF Done:  E(RwB97XD) =  -1581.74388245     A.U. after   14 cycles
 SCF Done:  E(RwB97XD) =  -1581.75027150     A.U. after   17 cycles
 SCF Done:  E(RwB97XD) =  -1581.75410525     A.U. after   14 cycles
 SCF Done:  E(RwB97XD) =  -1581.75561197     A.U. after   14 cycles
 SCF Done:  E(RwB97XD) =  -1581.75612701     A.U. after   14 cycles
 SCF Done:  E(RwB97XD) =  -1581.75649634     A.U. after   13 cycles
 SCF Done:  E(RwB97XD) =  -1581.75754457     A.U. after   13 cycles
 SCF Done:  E(RwB97XD) =  -1581.75763022     A.U. after   13 cycles
 SCF Done:  E(RwB97XD) =  -1581.75756788     A.U. after   14 cycles
 SCF Done:  E(RwB97XD) =  -1581.75766486     A.U. after   14 cycles
 SCF Done:  E(RwB97XD) =  -1581.75767238     A.U. after   12 cycles
 SCF Done:  E(RwB97XD) =  -1581.75767659     A.U. after   12 cycles
 SCF Done:  E(RwB97XD) =  -1581.75767684     A.U. after   10 cycles
 SCF Done:  E(RwB97XD) =  -1581.75767706     A.U. after    8 cycles
 SCF Done:  E(RwB97XD) =  -1581.75767709     A.U. after    7 cycles
 SCF Done:  E(RwB97XD) =  -1581.75767713     A.U. after    7 cycles
 Optimization completed.
    -- Stationary point found.

                         Standard orientation:
 ---------------------------------------------------------------------
 Center     Atomic      Atomic             Coordinates (Angstroms)
 Number     Number       Type             X           Y           Z
 ---------------------------------------------------------------------
      1          6           0       -8.549335   -3.376792   -0.597069
      2          6           0       -7.211434   -3.041360   -0.755641
      3          6           0       -6.721365   -1.895713   -0.128502
      4          6           0       -7.622279   -1.139489    0.630626
      5          7           0       -8.906069   -1.451466    0.795297
      6          6           0       -9.351453   -2.553544    0.186578
      7          6           0       -5.305836   -1.466972   -0.240584
      8          6           0       -4.273269   -2.364790   -0.542895
      9          6           0       -2.998970   -1.831181   -0.616366
     10          7           0       -2.723256   -0.543372   -0.409978
     11          6           0       -3.775080    0.227983   -0.111012
     12          7           0       -5.055158   -0.178935   -0.022347
     13          7           0       -3.616818    1.564033    0.131614
     14          6           0       -2.485302    2.393901    0.172696
     15          6           0       -2.706021    3.760464    0.445396
     16          6           0       -1.597308    4.596381    0.499809
     17          6           0       -0.296382    4.147124    0.298124
     18          6           0       -0.101427    2.794971    0.027016
     19          6           0       -1.191839    1.922777   -0.035532
     20          7           0        1.163817    2.224750   -0.215215
     21          6           0        2.402177    2.800067   -0.086363
     22          6           0        3.543000    1.894612   -0.456780
     23          6           0        3.444790    0.906720   -1.439533
     24          6           0        4.540217    0.104656   -1.737417
     25          6           0        5.748080    0.255168   -1.054689
     26          6           0        5.848461    1.273814   -0.103835
     27          6           0        4.763810    2.088906    0.190393
     28          6           0        6.916095   -0.684934   -1.315411
     29          7           0        6.980242   -1.917909   -0.548991
     30          6           0        6.017292   -2.965165   -0.867636
     31          6           0        4.749062   -2.933633    0.002593
     32          7           0        5.037145   -2.896103    1.433371
     33          6           0        5.482934   -4.166592    1.977230
     34          6           0        5.932563   -1.780122    1.727683
     35          6           0        7.219259   -1.801077    0.885030
     36          8           0        2.595222    3.938895    0.306710
     37          6           0       -4.093520    4.305818    0.672293
     38          1           0       -8.966973   -4.255880   -1.076212
     39          1           0       -6.566806   -3.653487   -1.379692
     40          1           0       -7.270153   -0.240017    1.127341
     41          1           0      -10.404306   -2.785211    0.331579
     42          1           0       -4.445839   -3.423568   -0.687494
     43          1           0       -2.145487   -2.465073   -0.848198
     44          1           0       -4.501821    2.006675    0.328426
     45          1           0       -1.754157    5.651414    0.709221
     46          1           0        0.545070    4.821897    0.356018
     47          1           0       -1.046032    0.871066   -0.245658
     48          1           0        1.151981    1.232912   -0.400282
     49          1           0        2.525460    0.782394   -2.006242
     50          1           0        4.454745   -0.653183   -2.512866
     51          1           0        6.791360    1.426605    0.416305
     52          1           0        4.843332    2.885651    0.922716
     53          1           0        6.918368   -0.962294   -2.376885
     54          1           0        7.851412   -0.141172   -1.132232
     55          1           0        5.753467   -2.891795   -1.928962
     56          1           0        6.517931   -3.935872   -0.734134
     57          1           0        4.127190   -3.811854   -0.210506
     58          1           0        4.158330   -2.042074   -0.238695
     59          1           0        6.432268   -4.554549    1.567392
     60          1           0        4.711182   -4.923176    1.797287
     61          1           0        5.606884   -4.065729    3.060844
     62          1           0        6.181874   -1.800142    2.795481
     63          1           0        5.381659   -0.851954    1.535440
     64          1           0        7.839335   -2.655006    1.195962
     65          1           0        7.810257   -0.897671    1.073486
     66          1           0       -4.579725    3.851757    1.546308
     67          1           0       -4.748394    4.146089   -0.194584
     68          1           0       -4.055040    5.383099    0.851675
 ---------------------------------------------------------------------

 The electronic state is 1-A.
 Alpha  occ. eigenvalues --  -19.23835 -14.49102 -14.48934 -14.45868 -14.45804
 Alpha  occ. eigenvalues --  -14.45506 -14.43973 -14.43415 -10.41652 -10.40645
 Alpha  occ. eigenvalues --  -10.37347 -10.36107 -10.34702 -10.34390 -10.34206
 Alpha  occ. eigenvalues --  -10.34098 -10.33405 -10.32869 -10.32823 -10.32041
 Alpha  occ. eigenvalues --  -10.31770 -10.31684 -10.31674 -10.31541 -10.31530
 Alpha  occ. eigenvalues --  -10.31430 -10.31086 -10.31041 -10.30949 -10.30885
 Alpha  occ. eigenvalues --  -10.30870 -10.30830 -10.30323 -10.30024 -10.29491
 Alpha  occ. eigenvalues --  -10.28982 -10.28254  -1.13999  -1.12111  -1.05378
 Alpha  occ. eigenvalues --   -1.04482  -1.04190  -1.03830  -1.00483  -0.99913
 Alpha  occ. eigenvalues --   -0.96781  -0.94847  -0.92393  -0.89396  -0.88367
 Alpha  occ. eigenvalues --   -0.86924  -0.86376  -0.85817  -0.85243  -0.83767
 Alpha  occ. eigenvalues --   -0.82265  -0.79762  -0.78188  -0.77516  -0.76441
 Alpha  occ. eigenvalues --   -0.73608  -0.73256  -0.73108  -0.72541  -0.71278
 Alpha  occ. eigenvalues --   -0.70659  -0.69528  -0.68359  -0.66305  -0.65184
 Alpha  occ. eigenvalues --   -0.64043  -0.63279  -0.62731  -0.61367  -0.60204
 Alpha  occ. eigenvalues --   -0.58491  -0.58319  -0.57252  -0.56992  -0.55833
 Alpha  occ. eigenvalues --   -0.55623  -0.55450  -0.55269  -0.54755  -0.54393
 Alpha  occ. eigenvalues --   -0.54210  -0.53699  -0.53243  -0.52997  -0.52382
 Alpha  occ. eigenvalues --   -0.51676  -0.51646  -0.51396  -0.50862  -0.50697
 Alpha  occ. eigenvalues --   -0.50445  -0.49925  -0.49788  -0.49515  -0.48774
 Alpha  occ. eigenvalues --   -0.47363  -0.47073  -0.46914  -0.46621  -0.46099
 Alpha  occ. eigenvalues --   -0.45608  -0.45509  -0.45153  -0.44494  -0.43966
 Alpha  occ. eigenvalues --   -0.43333  -0.43083  -0.42785  -0.41894  -0.41521
 Alpha  occ. eigenvalues --   -0.41305  -0.41189  -0.39933  -0.38173  -0.37066
 Alpha  occ. eigenvalues --   -0.35184  -0.34842  -0.34010  -0.33663  -0.33464
 Alpha  occ. eigenvalues --   -0.32914  -0.32452  -0.31162  -0.29303  -0.26950
 Alpha  occ. eigenvalues --   -0.25315
 Alpha virt. eigenvalues --    0.00191   0.02794   0.03625   0.04861   0.05697
 Alpha virt. eigenvalues --    0.07777   0.08204   0.10871   0.14329   0.15258
 Alpha virt. eigenvalues --    0.16231   0.16753   0.17028   0.17538   0.18746

 Mulliken atomic charges:
              1
     1  C   -0.195746
     2  C   -0.158538
     3  C    0.036588
     4  C    0.011633
     5  N   -0.421443
     6  C    0.025426
     7  C    0.287010
     8  C   -0.251844
     9  C    0.054314
    10  N   -0.496136
    11  C    0.725441
    12  N   -0.571916
    13  N   -0.811952
    14  C    0.302396
    15  C    0.115144
    16  C   -0.238761
    17  C   -0.192984
    18  C    0.357498
    19  C   -0.278816
    20  N   -0.765880
    21  C    0.597701
    22  C    0.017401
    23  C   -0.209349
    24  C   -0.219404
    25  C    0.158714
    26  C   -0.222622
    27  C   -0.175718
    28  C   -0.264172
    29  N   -0.380734
    30  C   -0.184673
    31  C   -0.180753
    32  N   -0.385185
    33  C   -0.350172
    34  C   -0.182790
    35  C   -0.186423
    36  O   -0.512552
    37  C   -0.612566
    38  H    0.181967
    39  H    0.181976
    40  H    0.198057
    41  H    0.181164
    42  H    0.180097
    43  H    0.184701
    44  H    0.370050
    45  H    0.160841
    46  H    0.216170
    47  H    0.204600
    48  H    0.358713
    49  H    0.174013
    50  H    0.164548
    51  H    0.167269
    52  H    0.201119
    53  H    0.170519
    54  H    0.171693
    55  H    0.151051
    56  H    0.160959
    57  H    0.151171
    58  H    0.163797
    59  H    0.135982
    60  H    0.166361
    61  H    0.168472
    62  H    0.154837
    63  H    0.169974
    64  H    0.161087
    65  H    0.154198
    66  H    0.181983
    67  H    0.182866
    68  H    0.191627
 Sum of Mulliken atomic charges =   0.00000

 Dipole moment (field-independent basis, Debye):
    X=             -0.3595    Y=             -5.3747    Z=             -2.0933  Tot=              5.7792
 Quadrupole moment (field-independent basis, Debye-Ang):
   XX=           -206.6395   YY=           -205.8775   ZZ=           -215.3890
   XY=              3.6487   XZ=             11.1538   YZ=              8.6273

 Normal termination of Gaussian 09 at Thu Feb 27 16:19:43 2020.
