                               Psi4 1.3.2 release

  ==> Input File <==

--------------------------------------------------------------------------
molecule {
0 1
 C    0.826975    4.682910   -2.612899
 C    2.150387    4.424887   -2.230409
 C    2.495808    3.172697   -1.682986
 C    1.436735    2.238678   -1.573075
 N    0.166031    2.467013   -1.927804
 C   -0.125232    3.672761   -2.438037
 C    3.887853    2.821440   -1.217746
 C    5.004641    3.669873   -1.293061
 C    6.196931    3.152429   -0.776469
 N    6.318007    1.946117   -0.231250
 C    5.193448    1.199923   -0.195904
 N    4.007658    1.596560   -0.667085
 N    5.341127   -0.049999    0.384800
 C    4.464560   -1.179060    0.568569
 C    5.029861   -2.451898    0.888204
 C    4.141488   -3.526602    1.061727
 C    2.753488   -3.420201    0.921907
 C    2.218901   -2.167234    0.610086
 C    3.074049   -1.067561    0.444201
 N    0.839666   -1.894676    0.412171
 C   -0.028089   -2.416369   -0.515628
 C   -1.383135   -1.763980   -0.694034
 C   -1.589718   -0.379383   -0.585993
 C   -2.865690    0.160637   -0.760428
 C   -3.974317   -0.654124   -1.058165
 C   -3.753948   -2.041754   -1.153481
 C   -2.479826   -2.590064   -0.989792
 C   -5.375914   -0.061030   -1.210966
 N   -6.189157    0.192880   -0.007971
 C   -5.852751    1.346382    0.856608
 C   -4.937307    1.008961    2.061481
 N   -5.433076   -0.100681    2.908195
 C   -6.458533    0.237281    3.902618
 C   -5.714280   -1.272385    2.043633
 C   -6.612158   -0.961666    0.817582
 O    0.261531   -3.398234   -1.178182
 C    6.522276   -2.693813    1.038162
 H    0.538575    5.642052   -3.032891
 H    2.883617    5.216826   -2.359303
 H    1.631453    1.245202   -1.185077
 H   -1.164987    3.830563   -2.720396
 H    4.984020    4.667328   -1.714488
 H    7.109703    3.747554   -0.798525
 H    6.306144   -0.183087    0.647812
 H    4.539101   -4.513276    1.296927
 H    2.103584   -4.279963    1.026373
 H    2.657330   -0.103905    0.198886
 H    0.479372   -1.155449    0.999816
 H   -0.742839    0.275614   -0.398573
 H   -2.987676    1.240605   -0.679346
 H   -4.585331   -2.712380   -1.369325
 H   -2.315272   -3.660649   -1.082612
 H   -5.289890    0.896572   -1.745115
 H   -5.967022   -0.733243   -1.849854
 H   -5.485319    2.155268    0.280501
 H   -7.214015    1.838920    1.499235
 H   -4.846072    2.245260    2.904589
 H   -3.841657    0.730477    1.699107
 H   -7.388556    0.554002    3.417170
 H   -6.104616    1.046289    4.551808
 H   -6.670457   -0.632165    4.535582
 H   -6.135382   -2.101596    2.662404
 H   -4.377981   -1.742823    1.503293
 H   -8.028657   -0.605854    1.413411
 H   -6.753637   -1.914525    0.146592
 H    6.934057   -2.137037    1.891629
 H    7.074014   -2.379666    0.140782
 H    6.771213   -3.751413    1.202157
}
memory 20GB
set_num_threads(6)
psi4_io.set_default_path("/scratch/bdw2292")
set freeze_core True
E, wfn = energy('mp2/6-311++G**',return_wfn=True)
oeprop(wfn,"WIBERG_LOWDIN_INDICES")
clean()
--------------------------------------------------------------------------

    Molecular point group: c1

    Geometry (in Angstrom), charge = 0, multiplicity = 1:

       Center              X                  Y                   Z               Mass
    ------------   -----------------  -----------------  -----------------  -----------------
         C            0.645138870120     4.593085060236    -2.485675660453    12.000000000000
         C            1.968550870120     4.335062060236    -2.103185660453    12.000000000000
         C            2.313971870120     3.082872060236    -1.555762660453    12.000000000000
         C            1.254898870120     2.148853060236    -1.445851660453    12.000000000000
         N           -0.015805129880     2.377188060236    -1.800580660453    14.003074004430
         C           -0.307068129880     3.582936060236    -2.310813660453    12.000000000000
         C            3.706016870120     2.731615060236    -1.090522660453    12.000000000000
         C            4.822804870120     3.580048060236    -1.165837660453    12.000000000000
         C            6.015094870120     3.062604060236    -0.649245660453    12.000000000000
         N            6.136170870120     1.856292060236    -0.104026660453    14.003074004430
         C            5.011611870120     1.110098060236    -0.068680660453    12.000000000000
         N            3.825821870120     1.506735060236    -0.539861660453    14.003074004430
         N            5.159290870120    -0.139823939764     0.512023339547    14.003074004430
         C            4.282723870120    -1.268884939764     0.695792339547    12.000000000000
         C            4.848024870120    -2.541722939764     1.015427339547    12.000000000000
         C            3.959651870120    -3.616426939764     1.188950339547    12.000000000000
         C            2.571651870120    -3.510025939764     1.049130339547    12.000000000000
         C            2.037064870120    -2.257058939764     0.737309339547    12.000000000000
         C            2.892212870120    -1.157385939764     0.571424339547    12.000000000000
         N            0.657829870120    -1.984500939764     0.539394339547    14.003074004430
         C           -0.209925129880    -2.506193939764    -0.388404660453    12.000000000000
         C           -1.564971129880    -1.853804939764    -0.566810660453    12.000000000000
         C           -1.771554129880    -0.469207939764    -0.458769660453    12.000000000000
         C           -3.047526129880     0.070812060236    -0.633204660453    12.000000000000
         C           -4.156153129880    -0.743948939764    -0.930941660453    12.000000000000
         C           -3.935784129880    -2.131578939764    -1.026257660453    12.000000000000
         C           -2.661662129880    -2.679888939764    -0.862568660453    12.000000000000
         C           -5.557750129880    -0.150854939764    -1.083742660453    12.000000000000
         N           -6.370993129880     0.103055060236     0.119252339547    14.003074004430
         C           -6.034587129880     1.256557060236     0.983831339547    12.000000000000
         C           -5.119143129880     0.919136060236     2.188704339547    12.000000000000
         N           -5.614912129880    -0.190505939764     3.035418339547    14.003074004430
         C           -6.640369129880     0.147456060236     4.029841339547    12.000000000000
         C           -5.896116129880    -1.362209939764     2.170856339547    12.000000000000
         C           -6.793994129880    -1.051490939764     0.944805339547    12.000000000000
         O            0.079694870120    -3.488058939764    -1.050958660453    15.994914619570
         C            6.340439870120    -2.783637939764     1.165385339547    12.000000000000
         H            0.356738870120     5.552227060236    -2.905667660453     1.007825032230
         H            2.701780870120     5.127001060236    -2.232079660453     1.007825032230
         H            1.449616870120     1.155377060236    -1.057853660453     1.007825032230
         H           -1.346823129880     3.740738060236    -2.593172660453     1.007825032230
         H            4.802183870120     4.577503060236    -1.587264660453     1.007825032230
         H            6.927866870120     3.657729060236    -0.671301660453     1.007825032230
         H            6.124307870120    -0.272911939764     0.775035339547     1.007825032230
         H            4.357264870120    -4.603100939764     1.424150339547     1.007825032230
         H            1.921747870120    -4.369787939764     1.153596339547     1.007825032230
         H            2.475493870120    -0.193729939764     0.326109339547     1.007825032230
         H            0.297535870120    -1.245273939764     1.127039339547     1.007825032230
         H           -0.924675129880     0.185789060236    -0.271349660453     1.007825032230
         H           -3.169512129880     1.150780060236    -0.552122660453     1.007825032230
         H           -4.767167129880    -2.802204939764    -1.242101660453     1.007825032230
         H           -2.497108129880    -3.750473939764    -0.955388660453     1.007825032230
         H           -5.471726129880     0.806747060236    -1.617891660453     1.007825032230
         H           -6.148858129880    -0.823067939764    -1.722630660453     1.007825032230
         H           -5.667155129880     2.065443060236     0.407724339547     1.007825032230
         H           -7.395851129880     1.749095060236     1.626458339547     1.007825032230
         H           -5.027908129880     2.155435060236     3.031812339547     1.007825032230
         H           -4.023493129880     0.640652060236     1.826330339547     1.007825032230
         H           -7.570392129880     0.464177060236     3.544393339547     1.007825032230
         H           -6.286452129880     0.956464060236     4.679031339547     1.007825032230
         H           -6.852293129880    -0.721989939764     4.662805339547     1.007825032230
         H           -6.317218129880    -2.191420939764     2.789627339547     1.007825032230
         H           -4.559817129880    -1.832647939764     1.630516339547     1.007825032230
         H           -8.210493129880    -0.695678939764     1.540634339547     1.007825032230
         H           -6.935473129880    -2.004349939764     0.273815339547     1.007825032230
         H            6.752220870120    -2.226861939764     2.018852339547     1.007825032230
         H            6.892177870120    -2.469490939764     0.268005339547     1.007825032230
         H            6.589376870120    -3.841237939764     1.329380339547     1.007825032230

  Charge       = 0
  Multiplicity = 1
  Basis Set: 6-311++G**
    Blend: 6-311++G**
  Basis Set: (6-311++G** AUX)
    Blend: AUG-CC-PVTZ-JKFIT

    Orbital Energies [Eh]
    ---------------------

    Doubly Occupied:

       1A    -20.514819     2A    -15.603198     3A    -15.590970
       4A    -15.583243     5A    -15.573479     6A    -15.572966
       7A    -15.568809     8A    -15.555912     9A    -11.374742
      10A    -11.358884    11A    -11.333397    12A    -11.317374
      13A    -11.312809    14A    -11.306780    15A    -11.304930
      16A    -11.302196    17A    -11.301001    18A    -11.298617
      19A    -11.297221    20A    -11.287111    21A    -11.283979
      22A    -11.280044    23A    -11.277861    24A    -11.263124
      25A    -11.256424    26A    -11.255019    27A    -11.253865
      28A    -11.252023    29A    -11.250942    30A    -11.248300
      31A    -11.245067    32A    -11.244481    33A    -11.244193
      34A    -11.241444    35A    -11.238382    36A    -11.232960
      37A    -11.232928    38A     -1.382359    39A     -1.343625
      40A     -1.275639    41A     -1.248798    42A     -1.247157
      43A     -1.239700    44A     -1.208475    45A     -1.201307
      46A     -1.160708    47A     -1.140586    48A     -1.113808
      49A     -1.073988    50A     -1.058771    51A     -1.046840
      52A     -1.038329    53A     -1.022599    54A     -1.009711
      55A     -0.999782    56A     -0.977976    57A     -0.946773
      58A     -0.928212    59A     -0.924690    60A     -0.900289
      61A     -0.870695    62A     -0.866203    63A     -0.856008
      64A     -0.846901    65A     -0.835946    66A     -0.831697
      67A     -0.824242    68A     -0.805556    69A     -0.779257
      70A     -0.751743    71A     -0.740470    72A     -0.729664
      73A     -0.723062    74A     -0.707630    75A     -0.697390
      76A     -0.683349    77A     -0.678123    78A     -0.667406
      79A     -0.657762    80A     -0.656051    81A     -0.654785
      82A     -0.646746    83A     -0.639344    84A     -0.628383
      85A     -0.626558    86A     -0.618409    87A     -0.614546
      88A     -0.608366    89A     -0.606551    90A     -0.605816
      91A     -0.601853    92A     -0.595825    93A     -0.593166
      94A     -0.589959    95A     -0.584173    96A     -0.582652
      97A     -0.578608    98A     -0.570987    99A     -0.564030
     100A     -0.559199   101A     -0.548120   102A     -0.541915
     103A     -0.536379   104A     -0.530301   105A     -0.525309
     106A     -0.520834   107A     -0.516277   108A     -0.509633
     109A     -0.506836   110A     -0.502302   111A     -0.495059
     112A     -0.491643   113A     -0.485845   114A     -0.473484
     115A     -0.456159   116A     -0.449476   117A     -0.439517
     118A     -0.427145   119A     -0.419525   120A     -0.413543
     121A     -0.410013   122A     -0.398035   123A     -0.393116
     124A     -0.379774   125A     -0.373382   126A     -0.344926
     127A     -0.344440   128A     -0.340642   129A     -0.325133
     130A     -0.310759   131A     -0.295916

  @DF-RHF Final Energy: -1572.31708995300073

   => Energetics <=

    Nuclear Repulsion Energy =           3722.8277160613847627
    One-Electron Energy =               -9544.0212898476947885
    Two-Electron Energy =                4248.8764838333090665
    Total Energy =                      -1572.3170899530005045

  Dipole Moment: [D]
     X:     2.0242      Y:     5.3941      Z:     0.1206     Total:     5.7626

  Basis Set: (6-311++G** AUX)
    Blend: AUG-CC-PVTZ-RI
	 Reference Energy          =   -1572.3170899530007318 [Eh]
	 Singles Energy            =      -0.0000000000000000 [Eh]
	 Same-Spin Energy          =      -1.4707253070087347 [Eh]
	 Opposite-Spin Energy      =      -4.0488749889986382 [Eh]
	 Correlation Energy        =      -5.5196002960073729 [Eh]
	 Total Energy              =   -1577.8366902490081429 [Eh]

	 ================> DF-SCS-MP2 Energies <==================
	-----------------------------------------------------------
	 SCS Same-Spin Scale       =       0.3333333333333333 [-]
	 SCS Opposite-Spin Scale   =       1.2000000000000000 [-]
	 SCS Same-Spin Energy      =      -0.4902417690029116 [Eh]
	 SCS Opposite-Spin Energy  =      -4.8586499867983655 [Eh]
	 SCS Correlation Energy    =      -5.3488917558012767 [Eh]
	 SCS Total Energy          =   -1577.6659817088020645 [Eh]
	-----------------------------------------------------------

*** Psi4 exiting successfully. Buy a developer a beer!
