 Gaussian 09, Revision A.02,
 Gaussian 09:  EM64L-G09RevA.02 11-Jun-2009

 --------------------------------------------------
 #P opt=(,maxcycle=400) wB97XD/6-31G* MaxDisk=100GB
 --------------------------------------------------

 -----------------------------------------------------------------
 MOLECULE0 Rotatable Bond Optimization on g2-node38.bme.utexas.edu
 -----------------------------------------------------------------
 Symbolic Z-matrix:
 Charge =  0 Multiplicity = 1

 SCF Done:  E(RwB97XD) =  -1581.51466277     A.U. after   16 cycles
 SCF Done:  E(RwB97XD) =  -1581.57522209     A.U. after   13 cycles
 SCF Done:  E(RwB97XD) =  -1581.67347533     A.U. after   14 cycles
 SCF Done:  E(RwB97XD) =  -1581.71956352     A.U. after   14 cycles
 SCF Done:  E(RwB97XD) =  -1581.74245455     A.U. after   16 cycles
 SCF Done:  E(RwB97XD) =  -1581.74947150     A.U. after   15 cycles
 SCF Done:  E(RwB97XD) =  -1581.75196732     A.U. after   14 cycles
 SCF Done:  E(RwB97XD) =  -1581.75277331     A.U. after   14 cycles
 SCF Done:  E(RwB97XD) =  -1581.75464341     A.U. after   16 cycles
 SCF Done:  E(RwB97XD) =  -1581.74967580     A.U. after   17 cycles
 SCF Done:  E(RwB97XD) =  -1581.76010410     A.U. after   11 cycles
 SCF Done:  E(RwB97XD) =  -1581.76010271     A.U. after   12 cycles
 SCF Done:  E(RwB97XD) =  -1581.76010240     A.U. after   12 cycles
 SCF Done:  E(RwB97XD) =  -1581.76010262     A.U. after   10 cycles
 SCF Done:  E(RwB97XD) =  -1581.76010217     A.U. after    9 cycles
 SCF Done:  E(RwB97XD) =  -1581.76010102     A.U. after   10 cycles
 SCF Done:  E(RwB97XD) =  -1581.76010116     A.U. after    8 cycles
 SCF Done:  E(RwB97XD) =  -1581.76010059     A.U. after    8 cycles
 SCF Done:  E(RwB97XD) =  -1581.76010039     A.U. after    7 cycles
 SCF Done:  E(RwB97XD) =  -1581.76010063     A.U. after    7 cycles
 Optimization completed.
    -- Stationary point found.

                         Standard orientation:
 ---------------------------------------------------------------------
 Center     Atomic      Atomic             Coordinates (Angstroms)
 Number     Number       Type             X           Y           Z
 ---------------------------------------------------------------------
      1          6           0        1.065377    4.847741    0.148365
      2          6           0        2.369372    4.385066    0.275975
      3          6           0        2.684241    3.109951   -0.191073
      4          6           0        1.652488    2.369327   -0.780813
      5          7           0        0.396311    2.792985   -0.900773
      6          6           0        0.116994    4.013981   -0.434181
      7          6           0        4.033221    2.509642   -0.040531
      8          6           0        5.202880    3.259347    0.042118
      9          6           0        6.382820    2.536884    0.213915
     10          7           0        6.430640    1.214932    0.295978
     11          6           0        5.243049    0.583674    0.187603
     12          7           0        4.059353    1.175123    0.021168
     13          7           0        5.319881   -0.778847    0.275708
     14          6           0        4.316730   -1.764397    0.244660
     15          6           0        4.682641   -3.091521    0.550725
     16          6           0        3.683532   -4.059954    0.525377
     17          6           0        2.354971   -3.782562    0.210870
     18          6           0        2.020087   -2.467296   -0.097901
     19          6           0        2.996897   -1.472104   -0.078091
     20          7           0        0.732509   -2.028933   -0.455392
     21          6           0       -0.466452   -2.681979   -0.365718
     22          6           0       -1.660549   -1.848286   -0.749313
     23          6           0       -1.653091   -0.452106   -0.831120
     24          6           0       -2.798931    0.234642   -1.211766
     25          6           0       -3.983793   -0.443389   -1.499497
     26          6           0       -3.983486   -1.838010   -1.417033
     27          6           0       -2.842270   -2.532489   -1.040332
     28          6           0       -5.247746    0.321940   -1.863030
     29          7           0       -6.140679    0.722401   -0.788540
     30          6           0       -5.655629    1.736049    0.141181
     31          6           0       -5.000994    1.156924    1.406608
     32          7           0       -5.842130    0.175823    2.086587
     33          6           0       -6.955908    0.758410    2.813124
     34          6           0       -6.231133   -0.874437    1.149428
     35          6           0       -6.903018   -0.327364   -0.121340
     36          8           0       -0.580049   -3.848893   -0.025304
     37          6           0        6.103632   -3.452041    0.902813
     38          1           0        0.782905    5.830417    0.510528
     39          1           0        3.123018    4.998357    0.761578
     40          1           0        1.870571    1.384042   -1.183183
     41          1           0       -0.916544    4.337708   -0.532089
     42          1           0        5.213234    4.338898   -0.043582
     43          1           0        7.338449    3.051867    0.288773
     44          1           0        6.265449   -1.095522    0.429861
     45          1           0        3.953450   -5.085690    0.763747
     46          1           0        1.600795   -4.556548    0.206770
     47          1           0        2.726318   -0.448247   -0.283799
     48          1           0        0.702391   -1.085216   -0.807184
     49          1           0       -0.776210    0.141265   -0.583904
     50          1           0       -2.762362    1.319358   -1.278718
     51          1           0       -4.893644   -2.386655   -1.649548
     52          1           0       -2.841738   -3.614963   -0.966613
     53          1           0       -4.960794    1.234012   -2.401633
     54          1           0       -5.837549   -0.283228   -2.562635
     55          1           0       -4.952040    2.390680   -0.385868
     56          1           0       -6.510931    2.363428    0.434453
     57          1           0       -4.761983    1.964314    2.109619
     58          1           0       -4.060229    0.660254    1.142176
     59          1           0       -7.700386    1.292385    2.196696
     60          1           0       -6.568488    1.468209    3.552420
     61          1           0       -7.482179   -0.035153    3.354920
     62          1           0       -6.905831   -1.571944    1.660305
     63          1           0       -5.324849   -1.429105    0.879828
     64          1           0       -7.887501    0.087273    0.142509
     65          1           0       -7.085500   -1.138626   -0.835348
     66          1           0        6.454564   -2.917004    1.795000
     67          1           0        6.803071   -3.230508    0.085190
     68          1           0        6.188151   -4.521184    1.112870
 ---------------------------------------------------------------------

 The electronic state is 1-A.
 Alpha  occ. eigenvalues --  -19.23284 -14.49310 -14.48400 -14.46770 -14.46126
 Alpha  occ. eigenvalues --  -14.45870 -14.43444 -14.42832 -10.41818 -10.40153
 Alpha  occ. eigenvalues --  -10.37643 -10.36361 -10.35299 -10.35231 -10.34643
 Alpha  occ. eigenvalues --  -10.34149 -10.33997 -10.33664 -10.32863 -10.32297
 Alpha  occ. eigenvalues --  -10.31875 -10.31133 -10.31059 -10.31052 -10.30945
 Alpha  occ. eigenvalues --  -10.30744 -10.30399 -10.30386 -10.30362 -10.30324
 Alpha  occ. eigenvalues --  -10.30173 -10.30162 -10.30106 -10.30036 -10.29516
 Alpha  occ. eigenvalues --  -10.28709 -10.28310  -1.13481  -1.12316  -1.06375
 Alpha  occ. eigenvalues --   -1.04592  -1.03635  -1.03601  -1.00740  -0.99342
 Alpha  occ. eigenvalues --   -0.96055  -0.94693  -0.93142  -0.89805  -0.88078
 Alpha  occ. eigenvalues --   -0.87399  -0.86252  -0.85199  -0.84534  -0.83772
 Alpha  occ. eigenvalues --   -0.81725  -0.79531  -0.78273  -0.77718  -0.76340
 Alpha  occ. eigenvalues --   -0.73952  -0.73055  -0.72983  -0.72644  -0.70875
 Alpha  occ. eigenvalues --   -0.70324  -0.69544  -0.67989  -0.66453  -0.65242
 Alpha  occ. eigenvalues --   -0.63729  -0.63329  -0.62284  -0.61851  -0.60211
 Alpha  occ. eigenvalues --   -0.58870  -0.58004  -0.57564  -0.56466  -0.56202
 Alpha  occ. eigenvalues --   -0.55781  -0.55079  -0.54903  -0.54736  -0.54337
 Alpha  occ. eigenvalues --   -0.53658  -0.53209  -0.52986  -0.52414  -0.52088
 Alpha  occ. eigenvalues --   -0.51889  -0.51562  -0.51331  -0.50924  -0.50711
 Alpha  occ. eigenvalues --   -0.50518  -0.50388  -0.49942  -0.49437  -0.48335
 Alpha  occ. eigenvalues --   -0.47286  -0.46715  -0.46540  -0.46443  -0.46060
 Alpha  occ. eigenvalues --   -0.45583  -0.44956  -0.44607  -0.43943  -0.43745
 Alpha  occ. eigenvalues --   -0.43354  -0.43151  -0.42134  -0.41689  -0.41267
 Alpha  occ. eigenvalues --   -0.40729  -0.40633  -0.39892  -0.38213  -0.37563
 Alpha  occ. eigenvalues --   -0.35836  -0.35358  -0.33919  -0.33575  -0.33262
 Alpha  occ. eigenvalues --   -0.32901  -0.32020  -0.30634  -0.29158  -0.27013
 Alpha  occ. eigenvalues --   -0.24766
 Alpha virt. eigenvalues --   -0.00256   0.02894   0.03199   0.04358   0.06536
 Alpha virt. eigenvalues --    0.07197   0.08457   0.10623   0.13527   0.14911
 Alpha virt. eigenvalues --    0.15917   0.16358   0.17277   0.17674   0.18732

 Mulliken atomic charges:
              1
     1  C   -0.195424
     2  C   -0.154970
     3  C    0.039078
     4  C    0.014670
     5  N   -0.432856
     6  C    0.028062
     7  C    0.290692
     8  C   -0.257042
     9  C    0.050148
    10  N   -0.494760
    11  C    0.719233
    12  N   -0.566387
    13  N   -0.810881
    14  C    0.288636
    15  C    0.120418
    16  C   -0.241424
    17  C   -0.187665
    18  C    0.364125
    19  C   -0.270664
    20  N   -0.780602
    21  C    0.612465
    22  C    0.017060
    23  C   -0.210718
    24  C   -0.226433
    25  C    0.160073
    26  C   -0.223214
    27  C   -0.178174
    28  C   -0.263886
    29  N   -0.381377
    30  C   -0.184396
    31  C   -0.182450
    32  N   -0.383740
    33  C   -0.349380
    34  C   -0.183812
    35  C   -0.185962
    36  O   -0.521015
    37  C   -0.609407
    38  H    0.186819
    39  H    0.187372
    40  H    0.189848
    41  H    0.182088
    42  H    0.181433
    43  H    0.189693
    44  H    0.370013
    45  H    0.160492
    46  H    0.213620
    47  H    0.204484
    48  H    0.362134
    49  H    0.178583
    50  H    0.170171
    51  H    0.164349
    52  H    0.201595
    53  H    0.169243
    54  H    0.169595
    55  H    0.149572
    56  H    0.158716
    57  H    0.150197
    58  H    0.173057
    59  H    0.134264
    60  H    0.165892
    61  H    0.167540
    62  H    0.153478
    63  H    0.173248
    64  H    0.159253
    65  H    0.152613
    66  H    0.183048
    67  H    0.178582
    68  H    0.190989
 Sum of Mulliken atomic charges =   0.00000

 Dipole moment (field-independent basis, Debye):
    X=              2.2686    Y=              6.0714    Z=             -0.1722  Tot=              6.4837
 Quadrupole moment (field-independent basis, Debye-Ang):
   XX=           -188.5008   YY=           -195.1481   ZZ=           -221.6127
   XY=              6.1945   XZ=              4.3071   YZ=              5.5058

 Normal termination of Gaussian 09 at Tue Mar 10 13:35:19 2020.
