                               Psi4 1.3.2 release

  ==> Input File <==

--------------------------------------------------------------------------
molecule {
0 1
 C   -7.858743    2.782362   -2.162738
 C   -7.454748    2.526828   -0.845654
 C   -6.432883    1.590032   -0.590200
 C   -5.870426    0.961080   -1.729212
 N   -6.245672    1.194617   -2.993825
 C   -7.223387    2.088846   -3.198145
 C   -5.937332    1.258281    0.794723
 C   -6.402903    1.839051    1.986835
 C   -5.792514    1.388970    3.162959
 N   -4.830307    0.472042    3.207265
 C   -4.453186   -0.030340    2.013977
 N   -4.967496    0.325038    0.837451
 N   -3.460769   -0.980736    2.071083
 C   -2.740810   -1.660481    1.042555
 C   -3.419906   -2.472885    0.086594
 C   -2.632884   -3.094362   -0.895881
 C   -1.244165   -2.952248   -0.985831
 C   -0.593144   -2.154472   -0.038078
 C   -1.347764   -1.530000    0.971415
 N    0.817145   -1.902762    0.007451
 C    1.837457   -2.331389   -0.811120
 C    3.257451   -1.932690   -0.455319
 C    3.693232   -1.686617    0.857250
 C    5.015520   -1.312896    1.106529
 C    5.951759   -1.186558    0.063279
 C    5.513462   -1.476878   -1.242536
 C    4.194769   -1.857900   -1.499704
 C    7.388159   -0.739150    0.338350
 N    7.702280    0.700905    0.319794
 C    7.214499    1.550245    1.429904
 C    5.873433    2.274772    1.148102
 N    5.849729    3.054572   -0.110111
 C    6.443301    4.395926   -0.062423
 C    6.288567    2.177946   -1.221838
 C    7.625352    1.433524   -0.965258
 O    1.635574   -3.003903   -1.809739
 C   -4.915529   -2.742827    0.097017
 H   -8.644247    3.499322   -2.382999
 H   -7.952212    3.066824   -0.043779
 H   -5.070071    0.236193   -1.607479
 H   -7.504563    2.255047   -4.236771
 H   -7.176512    2.595879    2.032039
 H   -6.094967    1.794040    4.128252
 H   -3.033433   -1.110080    2.977426
 H   -3.114536   -3.727303   -1.640335
 H   -0.679727   -3.443196   -1.768980
 H   -0.873228   -0.900246    1.711708
 H    1.092617   -1.235950    0.714105
 H    2.995434   -1.788585    1.684385
 H    5.317352   -1.109823    2.134048
 H    6.206890   -1.401112   -2.079824
 H    3.865498   -2.079084   -2.511823
 H    7.690900   -1.121651    1.323999
 H    8.046735   -1.219953   -0.399775
 H    7.199744    1.008501    2.339653
 H    8.277256    2.706817    1.615937
 H    5.608801    3.184218    2.270266
 H    4.889115    1.387382    1.090233
 H    7.521943    4.343114    0.123730
 H    5.976025    4.988275    0.732573
 H    6.274512    4.917278   -1.011777
 H    6.357245    2.835472   -2.252160
 H    5.249567    1.179330   -1.408199
 H    8.725401    2.568626   -0.909863
 H    7.895083    0.776802   -1.799170
 H   -5.463892   -1.990166   -0.484699
 H   -5.332719   -2.739104    1.113024
 H   -5.166105   -3.723129   -0.332096
}
memory 20GB
set_num_threads(6)
psi4_io.set_default_path("/scratch/bdw2292")
set freeze_core True
E, wfn = energy('mp2/6-311++G**',return_wfn=True)
oeprop(wfn,"WIBERG_LOWDIN_INDICES")
clean()
--------------------------------------------------------------------------

    Molecular point group: c1

    Geometry (in Angstrom), charge = 0, multiplicity = 1:

       Center              X                  Y                   Z               Mass
    ------------   -----------------  -----------------  -----------------  -----------------
         C           -7.756148835545     2.836686103727    -2.162105889059    12.000000000000
         C           -7.352153835545     2.581152103727    -0.845021889059    12.000000000000
         C           -6.330288835545     1.644356103727    -0.589567889059    12.000000000000
         C           -5.767831835545     1.015404103727    -1.728579889059    12.000000000000
         N           -6.143077835545     1.248941103727    -2.993192889059    14.003074004430
         C           -7.120792835545     2.143170103727    -3.197512889059    12.000000000000
         C           -5.834737835545     1.312605103727     0.795355110941    12.000000000000
         C           -6.300308835545     1.893375103727     1.987467110941    12.000000000000
         C           -5.689919835545     1.443294103727     3.163591110941    12.000000000000
         N           -4.727712835545     0.526366103727     3.207897110941    14.003074004430
         C           -4.350591835545     0.023984103727     2.014609110941    12.000000000000
         N           -4.864901835545     0.379362103727     0.838083110941    14.003074004430
         N           -3.358174835545    -0.926411896273     2.071715110941    14.003074004430
         C           -2.638215835545    -1.606156896273     1.043187110941    12.000000000000
         C           -3.317311835545    -2.418560896273     0.087226110941    12.000000000000
         C           -2.530289835545    -3.040037896273    -0.895248889059    12.000000000000
         C           -1.141570835545    -2.897923896273    -0.985198889059    12.000000000000
         C           -0.490549835545    -2.100147896273    -0.037445889059    12.000000000000
         C           -1.245169835545    -1.475675896273     0.972047110941    12.000000000000
         N            0.919739164455    -1.848437896273     0.008083110941    14.003074004430
         C            1.940051164455    -2.277064896273    -0.810487889059    12.000000000000
         C            3.360045164455    -1.878365896273    -0.454686889059    12.000000000000
         C            3.795826164455    -1.632292896273     0.857882110941    12.000000000000
         C            5.118114164455    -1.258571896273     1.107161110941    12.000000000000
         C            6.054353164455    -1.132233896273     0.063911110941    12.000000000000
         C            5.616056164455    -1.422553896273    -1.241903889059    12.000000000000
         C            4.297363164455    -1.803575896273    -1.499071889059    12.000000000000
         C            7.490753164455    -0.684825896273     0.338982110941    12.000000000000
         N            7.804874164455     0.755229103727     0.320426110941    14.003074004430
         C            7.317093164455     1.604569103727     1.430536110941    12.000000000000
         C            5.976027164455     2.329096103727     1.148734110941    12.000000000000
         N            5.952323164455     3.108896103727    -0.109478889059    14.003074004430
         C            6.545895164455     4.450250103727    -0.061790889059    12.000000000000
         C            6.391161164455     2.232270103727    -1.221205889059    12.000000000000
         C            7.727946164455     1.487848103727    -0.964625889059    12.000000000000
         O            1.738168164455    -2.949578896273    -1.809106889059    15.994914619570
         C           -4.812934835545    -2.688502896273     0.097649110941    12.000000000000
         H           -8.541652835545     3.553646103727    -2.382366889059     1.007825032230
         H           -7.849617835545     3.121148103727    -0.043146889059     1.007825032230
         H           -4.967476835545     0.290517103727    -1.606846889059     1.007825032230
         H           -7.401968835545     2.309371103727    -4.236138889059     1.007825032230
         H           -7.073917835545     2.650203103727     2.032671110941     1.007825032230
         H           -5.992372835545     1.848364103727     4.128884110941     1.007825032230
         H           -2.930838835545    -1.055755896273     2.978058110941     1.007825032230
         H           -3.011941835545    -3.672978896273    -1.639702889059     1.007825032230
         H           -0.577132835545    -3.388871896273    -1.768347889059     1.007825032230
         H           -0.770633835545    -0.845921896273     1.712340110941     1.007825032230
         H            1.195211164455    -1.181625896273     0.714737110941     1.007825032230
         H            3.098028164455    -1.734260896273     1.685017110941     1.007825032230
         H            5.419946164455    -1.055498896273     2.134680110941     1.007825032230
         H            6.309484164455    -1.346787896273    -2.079191889059     1.007825032230
         H            3.968092164455    -2.024759896273    -2.511190889059     1.007825032230
         H            7.793494164455    -1.067326896273     1.324631110941     1.007825032230
         H            8.149329164455    -1.165628896273    -0.399142889059     1.007825032230
         H            7.302338164455     1.062825103727     2.340285110941     1.007825032230
         H            8.379850164455     2.761141103727     1.616569110941     1.007825032230
         H            5.711395164455     3.238542103727     2.270898110941     1.007825032230
         H            4.991709164455     1.441706103727     1.090865110941     1.007825032230
         H            7.624537164455     4.397438103727     0.124362110941     1.007825032230
         H            6.078619164455     5.042599103727     0.733205110941     1.007825032230
         H            6.377106164455     4.971602103727    -1.011144889059     1.007825032230
         H            6.459839164455     2.889796103727    -2.251527889059     1.007825032230
         H            5.352161164455     1.233654103727    -1.407566889059     1.007825032230
         H            8.827995164455     2.622950103727    -0.909230889059     1.007825032230
         H            7.997677164455     0.831126103727    -1.798537889059     1.007825032230
         H           -5.361297835545    -1.935841896273    -0.484066889059     1.007825032230
         H           -5.230124835545    -2.684779896273     1.113656110941     1.007825032230
         H           -5.063510835545    -3.668804896273    -0.331463889059     1.007825032230

  Charge       = 0
  Multiplicity = 1
  Basis Set: 6-311++G**
    Blend: 6-311++G**
  Basis Set: (6-311++G** AUX)
    Blend: AUG-CC-PVTZ-JKFIT

    Orbital Energies [Eh]
    ---------------------

    Doubly Occupied:

       1A    -20.527614     2A    -15.609497     3A    -15.592960
       4A    -15.578136     5A    -15.572199     6A    -15.565493
       7A    -15.560904     8A    -15.560843     9A    -11.371825
      10A    -11.367028    11A    -11.325875    12A    -11.321648
      13A    -11.313953    14A    -11.311323    15A    -11.309909
      16A    -11.306247    17A    -11.298402    18A    -11.292882
      19A    -11.288709    20A    -11.287145    21A    -11.286266
      22A    -11.278336    23A    -11.268145    24A    -11.267634
      25A    -11.266757    26A    -11.266452    27A    -11.258145
      28A    -11.257527    29A    -11.254534    30A    -11.253975
      31A    -11.247668    32A    -11.245683    33A    -11.244705
      34A    -11.243807    35A    -11.238340    36A    -11.231573
      37A    -11.220402    38A     -1.394226    39A     -1.339365
      40A     -1.264841    41A     -1.256272    42A     -1.251986
      43A     -1.240434    44A     -1.206006    45A     -1.202464
      46A     -1.171582    47A     -1.139835    48A     -1.105472
      49A     -1.069034    50A     -1.065180    51A     -1.039160
      52A     -1.038551    53A     -1.033948    54A     -1.006822
      55A     -1.002985    56A     -0.982996    57A     -0.944371
      58A     -0.929705    59A     -0.917049    60A     -0.893393
      61A     -0.871926    62A     -0.861668    63A     -0.852244
      64A     -0.845612    65A     -0.840883    66A     -0.837867
      67A     -0.834006    68A     -0.809485    69A     -0.779769
      70A     -0.752125    71A     -0.743023    72A     -0.729326
      73A     -0.715339    74A     -0.707018    75A     -0.693843
      76A     -0.687337    77A     -0.674967    78A     -0.666097
      79A     -0.660061    80A     -0.657574    81A     -0.650823
      82A     -0.647657    83A     -0.643391    84A     -0.634817
      85A     -0.629191    86A     -0.623642    87A     -0.610456
      88A     -0.609217    89A     -0.605012    90A     -0.600690
      91A     -0.598281    92A     -0.596684    93A     -0.594368
      94A     -0.592394    95A     -0.585702    96A     -0.581643
      97A     -0.581006    98A     -0.569947    99A     -0.566708
     100A     -0.547915   101A     -0.543262   102A     -0.540280
     103A     -0.534050   104A     -0.532140   105A     -0.530993
     106A     -0.522436   107A     -0.510804   108A     -0.509655
     109A     -0.506312   110A     -0.505835   111A     -0.500474
     112A     -0.497833   113A     -0.486521   114A     -0.474177
     115A     -0.458290   116A     -0.443686   117A     -0.436075
     118A     -0.429524   119A     -0.428561   120A     -0.426328
     121A     -0.405766   122A     -0.395925   123A     -0.388424
     124A     -0.385587   125A     -0.361952   126A     -0.355477
     127A     -0.350628   128A     -0.338097   129A     -0.319090
     130A     -0.316426   131A     -0.298104

  @DF-RHF Final Energy: -1572.31257184007700

   => Energetics <=

    Nuclear Repulsion Energy =           3549.1443091608812210
    One-Electron Energy =               -9196.4924694737710524
    Two-Electron Energy =                4075.0355884728123783
    Total Energy =                      -1572.3125718400769983

  Dipole Moment: [D]
     X:    -1.2336      Y:     2.9900      Z:     3.3809     Total:     4.6789

  Basis Set: (6-311++G** AUX)
    Blend: AUG-CC-PVTZ-RI
	 Reference Energy          =   -1572.3125718400769983 [Eh]
	 Singles Energy            =      -0.0000000000000000 [Eh]
	 Same-Spin Energy          =      -1.4698046904911346 [Eh]
	 Opposite-Spin Energy      =      -4.0477238231831727 [Eh]
	 Correlation Energy        =      -5.5175285136743071 [Eh]
	 Total Energy              =   -1577.8301003537512770 [Eh]

	 ================> DF-SCS-MP2 Energies <==================
	-----------------------------------------------------------
	 SCS Same-Spin Scale       =       0.3333333333333333 [-]
	 SCS Opposite-Spin Scale   =       1.2000000000000000 [-]
	 SCS Same-Spin Energy      =      -0.4899348968303782 [Eh]
	 SCS Opposite-Spin Energy  =      -4.8572685878198074 [Eh]
	 SCS Correlation Energy    =      -5.3472034846501852 [Eh]
	 SCS Total Energy          =   -1577.6597753247272067 [Eh]
	-----------------------------------------------------------

*** Psi4 exiting successfully. Buy a developer a beer!
