                               Psi4 1.3.2 release

  ==> Input File <==

--------------------------------------------------------------------------
molecule {
0 1
 C   -1.106826    4.955986   -0.094184
 C   -2.418023    4.502794    0.101875
 C   -2.674662    3.121675    0.204359
 C   -1.541123    2.275026    0.136771
 N   -0.280421    2.688839   -0.045186
 C   -0.077624    4.010214   -0.165314
 C   -4.054089    2.536301    0.369431
 C   -5.226327    3.274600    0.598705
 C   -6.405412    2.528417    0.713178
 N   -6.468740    1.203120    0.605191
 C   -5.297277    0.576563    0.375593
 N   -4.121702    1.196694    0.264051
 N   -5.376174   -0.797436    0.251571
 C   -4.387559   -1.835425    0.107172
 C   -4.747998   -3.187218    0.393142
 C   -3.746604   -4.163257    0.261854
 C   -2.431493   -3.885412   -0.126665
 C   -2.091300   -2.560280   -0.419717
 C   -3.077527   -1.566548   -0.311444
 N   -0.790725   -2.102355   -0.815840
 C    0.424216   -2.747157   -0.859432
 C    1.665819   -1.923034   -1.149100
 C    1.801347   -0.558369   -0.840524
 C    2.991067    0.117353   -1.124025
 C    4.101148   -0.542584   -1.683878
 C    3.932129   -1.895927   -2.036282
 C    2.750412   -2.582808   -1.751181
 C    5.427253    0.173756   -1.954324
 N    6.258921    0.662647   -0.839944
 C    6.936219   -0.350870    0.002132
 C    6.177614   -0.740536    1.296287
 N    5.811737    0.422378    2.142522
 C    6.864125    0.948806    3.020394
 C    5.076411    1.405069    1.309232
 C    5.816874    1.798217    0.002131
 O    0.523197   -3.953518   -0.692609
 C   -6.141599   -3.604131    0.833240
 H   -0.887727    6.014730   -0.195127
 H   -3.220762    5.235385    0.144033
 H   -1.652095    1.201986    0.256852
 H    0.957479    4.311729   -0.317360
 H   -5.261315    4.351980    0.703372
 H   -7.368206    3.001755    0.903118
 H   -6.329847   -1.089991    0.402029
 H   -3.987031   -5.202540    0.480679
 H   -1.683072   -4.664514   -0.194486
 H   -2.826860   -0.548734   -0.559033
 H   -0.755303   -1.124576   -1.066687
 H    0.981103   -0.022207   -0.368247
 H    3.042674    1.183437   -0.905911
 H    4.749450   -2.442527   -2.505301
 H    2.654498   -3.639069   -1.988860
 H    6.067911   -0.500813   -2.539839
 H    5.214310    1.048942   -2.585640
 H    7.181016   -1.528252   -0.763089
 H    8.233288    0.188691    0.379242
 H    6.788630   -1.508350    1.931917
 H    4.871966   -1.421253    0.896790
 H    7.694775    1.360680    2.436342
 H    7.249149    0.151563    3.666770
 H    6.460581    1.736887    3.665948
 H    4.855577    2.502601    2.037164
 H    4.106145    0.978688    1.092908
 H    7.062077    2.525466    0.417115
 H    5.201409    2.554829   -0.627985
 H   -6.907731   -3.378187    0.077535
 H   -6.435935   -3.091578    1.753378
 H   -6.217484   -4.675888    1.034864
}
memory 20GB
set_num_threads(6)
psi4_io.set_default_path("/scratch/bdw2292")
set freeze_core True
E, wfn = energy('mp2/6-311++G**',return_wfn=True)
oeprop(wfn,"WIBERG_LOWDIN_INDICES")
clean()
--------------------------------------------------------------------------

    Molecular point group: c1

    Geometry (in Angstrom), charge = 0, multiplicity = 1:

       Center              X                  Y                   Z               Mass
    ------------   -----------------  -----------------  -----------------  -----------------
         C           -1.028640843718     4.982095419224    -0.063845482910    12.000000000000
         C           -2.339837843718     4.528903419224     0.132213517090    12.000000000000
         C           -2.596476843718     3.147784419224     0.234697517090    12.000000000000
         C           -1.462937843718     2.301135419224     0.167109517090    12.000000000000
         N           -0.202235843718     2.714948419224    -0.014847482910    14.003074004430
         C            0.000561156282     4.036323419224    -0.134975482910    12.000000000000
         C           -3.975903843718     2.562410419224     0.399769517090    12.000000000000
         C           -5.148141843718     3.300709419224     0.629043517090    12.000000000000
         C           -6.327226843718     2.554526419224     0.743516517090    12.000000000000
         N           -6.390554843718     1.229229419224     0.635529517090    14.003074004430
         C           -5.219091843718     0.602672419224     0.405931517090    12.000000000000
         N           -4.043516843718     1.222803419224     0.294389517090    14.003074004430
         N           -5.297988843718    -0.771326580776     0.281909517090    14.003074004430
         C           -4.309373843718    -1.809315580776     0.137510517090    12.000000000000
         C           -4.669812843718    -3.161108580776     0.423480517090    12.000000000000
         C           -3.668418843718    -4.137147580776     0.292192517090    12.000000000000
         C           -2.353307843718    -3.859302580776    -0.096326482910    12.000000000000
         C           -2.013114843718    -2.534170580776    -0.389378482910    12.000000000000
         C           -2.999341843718    -1.540438580776    -0.281105482910    12.000000000000
         N           -0.712539843718    -2.076245580776    -0.785501482910    14.003074004430
         C            0.502401156282    -2.721047580776    -0.829093482910    12.000000000000
         C            1.744004156282    -1.896924580776    -1.118761482910    12.000000000000
         C            1.879532156282    -0.532259580776    -0.810185482910    12.000000000000
         C            3.069252156282     0.143462419224    -1.093686482910    12.000000000000
         C            4.179333156282    -0.516474580776    -1.653539482910    12.000000000000
         C            4.010314156282    -1.869817580776    -2.005943482910    12.000000000000
         C            2.828597156282    -2.556698580776    -1.720842482910    12.000000000000
         C            5.505438156282     0.199865419224    -1.923985482910    12.000000000000
         N            6.337106156282     0.688756419224    -0.809605482910    14.003074004430
         C            7.014404156282    -0.324760580776     0.032470517090    12.000000000000
         C            6.255799156282    -0.714426580776     1.326625517090    12.000000000000
         N            5.889922156282     0.448487419224     2.172860517090    14.003074004430
         C            6.942310156282     0.974915419224     3.050732517090    12.000000000000
         C            5.154596156282     1.431178419224     1.339570517090    12.000000000000
         C            5.895059156282     1.824326419224     0.032469517090    12.000000000000
         O            0.601382156282    -3.927408580776    -0.662270482910    15.994914619570
         C           -6.063413843718    -3.578021580776     0.863578517090    12.000000000000
         H           -0.809541843718     6.040839419224    -0.164788482910     1.007825032230
         H           -3.142576843718     5.261494419224     0.174371517090     1.007825032230
         H           -1.573909843718     1.228095419224     0.287190517090     1.007825032230
         H            1.035664156282     4.337838419224    -0.287021482910     1.007825032230
         H           -5.183129843718     4.378089419224     0.733710517090     1.007825032230
         H           -7.290020843718     3.027864419224     0.933456517090     1.007825032230
         H           -6.251661843718    -1.063881580776     0.432367517090     1.007825032230
         H           -3.908845843718    -5.176430580776     0.511017517090     1.007825032230
         H           -1.604886843718    -4.638404580776    -0.164147482910     1.007825032230
         H           -2.748674843718    -0.522624580776    -0.528694482910     1.007825032230
         H           -0.677117843718    -1.098466580776    -1.036348482910     1.007825032230
         H            1.059288156282     0.003902419224    -0.337908482910     1.007825032230
         H            3.120859156282     1.209546419224    -0.875572482910     1.007825032230
         H            4.827635156282    -2.416417580776    -2.474962482910     1.007825032230
         H            2.732683156282    -3.612959580776    -1.958521482910     1.007825032230
         H            6.146096156282    -0.474703580776    -2.509500482910     1.007825032230
         H            5.292495156282     1.075051419224    -2.555301482910     1.007825032230
         H            7.259201156282    -1.502142580776    -0.732750482910     1.007825032230
         H            8.311473156282     0.214800419224     0.409580517090     1.007825032230
         H            6.866815156282    -1.482240580776     1.962255517090     1.007825032230
         H            4.950151156282    -1.395143580776     0.927128517090     1.007825032230
         H            7.772960156282     1.386789419224     2.466680517090     1.007825032230
         H            7.327334156282     0.177672419224     3.697108517090     1.007825032230
         H            6.538766156282     1.762996419224     3.696286517090     1.007825032230
         H            4.933762156282     2.528710419224     2.067502517090     1.007825032230
         H            4.184330156282     1.004797419224     1.123246517090     1.007825032230
         H            7.140262156282     2.551575419224     0.447453517090     1.007825032230
         H            5.279594156282     2.580938419224    -0.597646482910     1.007825032230
         H           -6.829545843718    -3.352077580776     0.107873517090     1.007825032230
         H           -6.357749843718    -3.065468580776     1.783716517090     1.007825032230
         H           -6.139298843718    -4.649778580776     1.065202517090     1.007825032230

  Charge       = 0
  Multiplicity = 1
  Basis Set: 6-311++G**
    Blend: 6-311++G**
  Basis Set: (6-311++G** AUX)
    Blend: AUG-CC-PVTZ-JKFIT

    Orbital Energies [Eh]
    ---------------------

    Doubly Occupied:

       1A    -20.519455     2A    -15.603529     3A    -15.601675
       4A    -15.587544     5A    -15.573282     6A    -15.570672
       7A    -15.568498     8A    -15.553472     9A    -11.374003
      10A    -11.363894    11A    -11.334296    12A    -11.328653
      13A    -11.313687    14A    -11.310559    15A    -11.305696
      16A    -11.301775    17A    -11.301182    18A    -11.300806
      19A    -11.292739    20A    -11.289822    21A    -11.281395
      22A    -11.280522    23A    -11.277284    24A    -11.266241
      25A    -11.257534    26A    -11.256139    27A    -11.254188
      28A    -11.252288    29A    -11.247836    30A    -11.246585
      31A    -11.245862    32A    -11.244770    33A    -11.243441
      34A    -11.238821    35A    -11.233714    36A    -11.231303
      37A    -11.223813    38A     -1.385548    39A     -1.345573
      40A     -1.278826    41A     -1.250056    42A     -1.244591
      43A     -1.241481    44A     -1.209712    45A     -1.198869
      46A     -1.160569    47A     -1.139473    48A     -1.116420
      49A     -1.075420    50A     -1.058578    51A     -1.048432
      52A     -1.037359    53A     -1.022416    54A     -1.007469
      55A     -0.995557    56A     -0.975670    57A     -0.947125
      58A     -0.928859    59A     -0.926689    60A     -0.901031
      61A     -0.873034    62A     -0.864686    63A     -0.858195
      64A     -0.841008    65A     -0.833993    66A     -0.829025
      67A     -0.824748    68A     -0.805253    69A     -0.778331
      70A     -0.754861    71A     -0.739198    72A     -0.731002
      73A     -0.722349    74A     -0.710365    75A     -0.697104
      76A     -0.682821    77A     -0.671106    78A     -0.666638
      79A     -0.657358    80A     -0.652079    81A     -0.650987
      82A     -0.639077    83A     -0.634787    84A     -0.630472
      85A     -0.623174    86A     -0.618003    87A     -0.614414
      88A     -0.611329    89A     -0.606730    90A     -0.602445
      91A     -0.599974    92A     -0.595175    93A     -0.592439
      94A     -0.589970    95A     -0.585708    96A     -0.580646
      97A     -0.580157    98A     -0.575887    99A     -0.565862
     100A     -0.561889   101A     -0.547973   102A     -0.544795
     103A     -0.535608   104A     -0.525427   105A     -0.523571
     106A     -0.520047   107A     -0.512917   108A     -0.508199
     109A     -0.504782   110A     -0.500901   111A     -0.498103
     112A     -0.492406   113A     -0.484874   114A     -0.479798
     115A     -0.453220   116A     -0.451702   117A     -0.443272
     118A     -0.435766   119A     -0.427524   120A     -0.425305
     121A     -0.414416   122A     -0.405492   123A     -0.400624
     124A     -0.379808   125A     -0.373677   126A     -0.346355
     127A     -0.344443   128A     -0.340445   129A     -0.315642
     130A     -0.312719   131A     -0.289573

  @DF-RHF Final Energy: -1572.34486599021852

   => Energetics <=

    Nuclear Repulsion Energy =           3702.6517817660242144
    One-Electron Energy =               -9503.6645821339807299
    Two-Electron Energy =                4228.6679343777377653
    Total Energy =                      -1572.3448659902187501

  Dipole Moment: [D]
     X:    -2.3808      Y:     6.6965      Z:    -0.2169     Total:     7.1104

  Basis Set: (6-311++G** AUX)
    Blend: AUG-CC-PVTZ-RI
	 Reference Energy          =   -1572.3448659902185227 [Eh]
	 Singles Energy            =      -0.0000000000000000 [Eh]
	 Same-Spin Energy          =      -1.4699215456354335 [Eh]
	 Opposite-Spin Energy      =      -4.0466741406302464 [Eh]
	 Correlation Energy        =      -5.5165956862656795 [Eh]
	 Total Energy              =   -1577.8614616764841685 [Eh]

	 ================> DF-SCS-MP2 Energies <==================
	-----------------------------------------------------------
	 SCS Same-Spin Scale       =       0.3333333333333333 [-]
	 SCS Opposite-Spin Scale   =       1.2000000000000000 [-]
	 SCS Same-Spin Energy      =      -0.4899738485451445 [Eh]
	 SCS Opposite-Spin Energy  =      -4.8560089687562957 [Eh]
	 SCS Correlation Energy    =      -5.3459828173014401 [Eh]
	 SCS Total Energy          =   -1577.6908488075200694 [Eh]
	-----------------------------------------------------------

*** Psi4 exiting successfully. Buy a developer a beer!
