 Gaussian 09, Revision A.02,
 Gaussian 09:  EM64L-G09RevA.02 11-Jun-2009

 --------------------------------------------------
 #P opt=(,maxcycle=400) wB97XD/6-31G* MaxDisk=100GB
 --------------------------------------------------

 --------------------------------------------------------------
 MOLECULE0 Rotatable Bond Optimization on node37.bme.utexas.edu
 --------------------------------------------------------------
 Symbolic Z-matrix:
 Charge =  0 Multiplicity = 1

 SCF Done:  E(RwB97XD) =  -1581.49292813     A.U. after   16 cycles
 SCF Done:  E(RwB97XD) =  -1581.55627528     A.U. after   14 cycles
 SCF Done:  E(RwB97XD) =  -1581.65819304     A.U. after   15 cycles
 SCF Done:  E(RwB97XD) =  -1581.70035023     A.U. after   15 cycles
 SCF Done:  E(RwB97XD) =  -1581.72270426     A.U. after   16 cycles
 SCF Done:  E(RwB97XD) =  -1581.71849748     A.U. after   15 cycles
 SCF Done:  E(RwB97XD) =  -1581.73457844     A.U. after   14 cycles
 SCF Done:  E(RwB97XD) =  -1581.74410213     A.U. after   13 cycles
 SCF Done:  E(RwB97XD) =  -1581.75017489     A.U. after   14 cycles
 SCF Done:  E(RwB97XD) =  -1581.75434674     A.U. after   14 cycles
 SCF Done:  E(RwB97XD) =  -1581.76091458     A.U. after   10 cycles
 SCF Done:  E(RwB97XD) =  -1581.76091396     A.U. after   10 cycles
 SCF Done:  E(RwB97XD) =  -1581.76091361     A.U. after   11 cycles
 SCF Done:  E(RwB97XD) =  -1581.76091382     A.U. after   11 cycles
 SCF Done:  E(RwB97XD) =  -1581.76091344     A.U. after   11 cycles
 SCF Done:  E(RwB97XD) =  -1581.76091264     A.U. after   11 cycles
 SCF Done:  E(RwB97XD) =  -1581.76091318     A.U. after   10 cycles
 SCF Done:  E(RwB97XD) =  -1581.76091373     A.U. after   11 cycles
 SCF Done:  E(RwB97XD) =  -1581.76091471     A.U. after    8 cycles
 SCF Done:  E(RwB97XD) =  -1581.76091514     A.U. after    7 cycles
 Optimization completed.
    -- Stationary point found.

                         Standard orientation:
 ---------------------------------------------------------------------
 Center     Atomic      Atomic             Coordinates (Angstroms)
 Number     Number       Type             X           Y           Z
 ---------------------------------------------------------------------
      1          6           0        7.448008    1.882171    0.721913
      2          6           0        6.887154    0.631578    0.941939
      3          6           0        5.748845    0.264071    0.224430
      4          6           0        5.231143    1.192011   -0.686972
      5          7           0        5.760181    2.393200   -0.910264
      6          6           0        6.848891    2.723159   -0.210833
      7          6           0        5.088853   -1.050752    0.402271
      8          6           0        5.775978   -2.182508    0.835821
      9          6           0        5.027159   -3.349076    0.959715
     10          7           0        3.733723   -3.420409    0.679677
     11          6           0        3.169490   -2.272596    0.251345
     12          7           0        3.784122   -1.098198    0.108530
     13          7           0        1.840496   -2.393110   -0.049448
     14          6           0        0.908018   -1.466426   -0.541738
     15          6           0       -0.317106   -1.978517   -1.016458
     16          6           0       -1.255840   -1.084197   -1.521244
     17          6           0       -1.022326    0.283536   -1.553127
     18          6           0        0.159240    0.783065   -1.013717
     19          6           0        1.128082   -0.086482   -0.519035
     20          7           0        0.391077    2.181554   -0.929249
     21          6           0       -0.515449    3.158182   -0.581986
     22          6           0       -1.745393    2.698247    0.144517
     23          6           0       -1.683998    1.776907    1.191778
     24          6           0       -2.851773    1.320958    1.784659
     25          6           0       -4.101991    1.742298    1.325333
     26          6           0       -4.149352    2.715271    0.325949
     27          6           0       -2.981693    3.201793   -0.252803
     28          6           0       -5.376366    1.104707    1.854159
     29          7           0       -5.805047   -0.140501    1.234930
     30          6           0       -5.079903   -1.361344    1.565993
     31          6           0       -3.972398   -1.730484    0.563256
     32          7           0       -4.437067   -1.743556   -0.823444
     33          6           0       -5.259410   -2.893545   -1.159638
     34          6           0       -5.059003   -0.457841   -1.139092
     35          6           0       -6.192592   -0.085361   -0.168738
     36          8           0       -0.314546    4.332097   -0.841735
     37          6           0       -0.625440   -3.454246   -0.982898
     38          1           0        8.327722    2.205852    1.267890
     39          1           0        7.315774   -0.039058    1.681225
     40          1           0        4.347622    0.932904   -1.264729
     41          1           0        7.259837    3.711351   -0.404738
     42          1           0        6.838754   -2.174381    1.042720
     43          1           0        5.493507   -4.272740    1.296617
     44          1           0        1.519395   -3.343190    0.061490
     45          1           0       -2.213010   -1.467143   -1.867132
     46          1           0       -1.767499    0.957349   -1.960595
     47          1           0        2.042605    0.307163   -0.098464
     48          1           0        1.251995    2.547366   -1.315545
     49          1           0       -0.722685    1.399258    1.526441
     50          1           0       -2.795054    0.597774    2.595062
     51          1           0       -5.113168    3.086242   -0.015759
     52          1           0       -3.018946    3.954418   -1.034260
     53          1           0       -5.265340    0.910432    2.927767
     54          1           0       -6.200630    1.821682    1.748490
     55          1           0       -4.657181   -1.261141    2.571903
     56          1           0       -5.808820   -2.184713    1.611132
     57          1           0       -3.558995   -2.717431    0.805485
     58          1           0       -3.152335   -1.006486    0.624234
     59          1           0       -6.214432   -2.969176   -0.612436
     60          1           0       -4.691080   -3.809099   -0.961591
     61          1           0       -5.490563   -2.865859   -2.230029
     62          1           0       -5.439683   -0.492617   -2.167130
     63          1           0       -4.274020    0.306899   -1.098375
     64          1           0       -7.035024   -0.777223   -0.318884
     65          1           0       -6.567202    0.918987   -0.394744
     66          1           0       -0.618900   -3.855180    0.040120
     67          1           0        0.088708   -4.041372   -1.574637
     68          1           0       -1.622366   -3.637987   -1.391576
 ---------------------------------------------------------------------

 The electronic state is 1-A.
 Alpha  occ. eigenvalues --  -19.22919 -14.49158 -14.47485 -14.45836 -14.45643
 Alpha  occ. eigenvalues --  -14.45484 -14.44065 -14.43828 -10.41567 -10.39773
 Alpha  occ. eigenvalues --  -10.37235 -10.36047 -10.34932 -10.34314 -10.34135
 Alpha  occ. eigenvalues --  -10.33945 -10.33323 -10.32779 -10.32548 -10.31981
 Alpha  occ. eigenvalues --  -10.31682 -10.31592 -10.31479 -10.31324 -10.31155
 Alpha  occ. eigenvalues --  -10.31029 -10.30796 -10.30725 -10.30705 -10.30544
 Alpha  occ. eigenvalues --  -10.30415 -10.30230 -10.30198 -10.30172 -10.29252
 Alpha  occ. eigenvalues --  -10.29231 -10.29088  -1.13112  -1.12095  -1.05364
 Alpha  occ. eigenvalues --   -1.04397  -1.04270  -1.02734  -1.00412  -1.00024
 Alpha  occ. eigenvalues --   -0.96006  -0.94711  -0.92488  -0.89223  -0.87528
 Alpha  occ. eigenvalues --   -0.86963  -0.86555  -0.85733  -0.84660  -0.83853
 Alpha  occ. eigenvalues --   -0.82191  -0.79255  -0.78423  -0.77695  -0.76112
 Alpha  occ. eigenvalues --   -0.73688  -0.73389  -0.73044  -0.72205  -0.70679
 Alpha  occ. eigenvalues --   -0.70178  -0.69189  -0.68730  -0.66202  -0.64679
 Alpha  occ. eigenvalues --   -0.64160  -0.63967  -0.61621  -0.60703  -0.59865
 Alpha  occ. eigenvalues --   -0.58619  -0.57954  -0.57124  -0.56731  -0.56090
 Alpha  occ. eigenvalues --   -0.55570  -0.55490  -0.55233  -0.54877  -0.54493
 Alpha  occ. eigenvalues --   -0.54199  -0.53854  -0.53293  -0.53140  -0.51934
 Alpha  occ. eigenvalues --   -0.51765  -0.51417  -0.51169  -0.50642  -0.50456
 Alpha  occ. eigenvalues --   -0.50104  -0.49758  -0.49366  -0.48955  -0.47951
 Alpha  occ. eigenvalues --   -0.47670  -0.47149  -0.46683  -0.46584  -0.45907
 Alpha  occ. eigenvalues --   -0.45683  -0.45501  -0.45075  -0.44286  -0.43729
 Alpha  occ. eigenvalues --   -0.43306  -0.42807  -0.42184  -0.41724  -0.41342
 Alpha  occ. eigenvalues --   -0.41301  -0.41086  -0.39958  -0.37345  -0.36411
 Alpha  occ. eigenvalues --   -0.34968  -0.34787  -0.33577  -0.33399  -0.33056
 Alpha  occ. eigenvalues --   -0.32667  -0.31808  -0.31027  -0.29891  -0.27275
 Alpha  occ. eigenvalues --   -0.25485
 Alpha virt. eigenvalues --    0.00278   0.03633   0.04015   0.04721   0.06282
 Alpha virt. eigenvalues --    0.07729   0.07754   0.10318   0.13502   0.14532
 Alpha virt. eigenvalues --    0.16115   0.16916   0.17631   0.17817   0.18497

 Mulliken atomic charges:
              1
     1  C   -0.195534
     2  C   -0.157379
     3  C    0.035141
     4  C    0.008128
     5  N   -0.420632
     6  C    0.026048
     7  C    0.288078
     8  C   -0.252860
     9  C    0.049774
    10  N   -0.497419
    11  C    0.709601
    12  N   -0.560515
    13  N   -0.802615
    14  C    0.293876
    15  C    0.104006
    16  C   -0.233863
    17  C   -0.173742
    18  C    0.274367
    19  C   -0.226097
    20  N   -0.719698
    21  C    0.531307
    22  C    0.018621
    23  C   -0.162783
    24  C   -0.221076
    25  C    0.155351
    26  C   -0.223324
    27  C   -0.182962
    28  C   -0.264800
    29  N   -0.381739
    30  C   -0.183417
    31  C   -0.182490
    32  N   -0.392331
    33  C   -0.351253
    34  C   -0.183172
    35  C   -0.185167
    36  O   -0.501938
    37  C   -0.610868
    38  H    0.182799
    39  H    0.182595
    40  H    0.196366
    41  H    0.183065
    42  H    0.180742
    43  H    0.188106
    44  H    0.369599
    45  H    0.194224
    46  H    0.169919
    47  H    0.207866
    48  H    0.364687
    49  H    0.184761
    50  H    0.161628
    51  H    0.162483
    52  H    0.192884
    53  H    0.170451
    54  H    0.169585
    55  H    0.154722
    56  H    0.158960
    57  H    0.148894
    58  H    0.174411
    59  H    0.141365
    60  H    0.164702
    61  H    0.169102
    62  H    0.154428
    63  H    0.170225
    64  H    0.160005
    65  H    0.157337
    66  H    0.174682
    67  H    0.184511
    68  H    0.198272
 Sum of Mulliken atomic charges =   0.00000

 Dipole moment (field-independent basis, Debye):
    X=              1.3181    Y=             -5.2666    Z=              2.0712  Tot=              5.8108
 Quadrupole moment (field-independent basis, Debye-Ang):
   XX=           -167.9970   YY=           -227.6519   ZZ=           -213.8067
   XY=             -1.7170   XZ=             17.3876   YZ=              2.1593

 Normal termination of Gaussian 09 at Wed Mar  4 08:36:00 2020.
