 Gaussian 09, Revision A.02,
 Gaussian 09:  EM64L-G09RevA.02 11-Jun-2009

 --------------------------------------------------
 #P opt=(,maxcycle=400) wB97XD/6-31G* MaxDisk=100GB
 --------------------------------------------------

 -----------------------------------------------------------------
 MOLECULE0 Rotatable Bond Optimization on g2-node38.bme.utexas.edu
 -----------------------------------------------------------------
 Symbolic Z-matrix:
 Charge =  0 Multiplicity = 1

 SCF Done:  E(RwB97XD) =  -1581.51787609     A.U. after   16 cycles
 SCF Done:  E(RwB97XD) =  -1581.57823197     A.U. after   13 cycles
 SCF Done:  E(RwB97XD) =  -1581.67666634     A.U. after   14 cycles
 SCF Done:  E(RwB97XD) =  -1581.72433493     A.U. after   14 cycles
 SCF Done:  E(RwB97XD) =  -1581.74586576     A.U. after   17 cycles
 SCF Done:  E(RwB97XD) =  -1581.75437753     A.U. after   16 cycles
 SCF Done:  E(RwB97XD) =  -1581.75735886     A.U. after   14 cycles
 SCF Done:  E(RwB97XD) =  -1581.75802437     A.U. after   14 cycles
 SCF Done:  E(RwB97XD) =  -1581.75921295     A.U. after   14 cycles
 SCF Done:  E(RwB97XD) =  -1581.75881532     A.U. after   17 cycles
 SCF Done:  E(RwB97XD) =  -1581.76010295     A.U. after   11 cycles
 SCF Done:  E(RwB97XD) =  -1581.76010299     A.U. after   12 cycles
 SCF Done:  E(RwB97XD) =  -1581.76010324     A.U. after   11 cycles
 SCF Done:  E(RwB97XD) =  -1581.76010060     A.U. after   13 cycles
 SCF Done:  E(RwB97XD) =  -1581.76010431     A.U. after   12 cycles
 SCF Done:  E(RwB97XD) =  -1581.76010331     A.U. after   12 cycles
 SCF Done:  E(RwB97XD) =  -1581.76010075     A.U. after   12 cycles
 SCF Done:  E(RwB97XD) =  -1581.76010043     A.U. after    7 cycles
 SCF Done:  E(RwB97XD) =  -1581.76010103     A.U. after    8 cycles
 SCF Done:  E(RwB97XD) =  -1581.76010055     A.U. after    8 cycles
 Optimization completed.
    -- Stationary point found.

                         Standard orientation:
 ---------------------------------------------------------------------
 Center     Atomic      Atomic             Coordinates (Angstroms)
 Number     Number       Type             X           Y           Z
 ---------------------------------------------------------------------
      1          6           0        1.064805    4.847718    0.146584
      2          6           0        2.368805    4.385233    0.274870
      3          6           0        2.683977    3.109984   -0.191591
      4          6           0        1.652534    2.369046   -0.781493
      5          7           0        0.396362    2.792518   -0.902089
      6          6           0        0.116735    4.013649   -0.436023
      7          6           0        4.032930    2.509788   -0.040322
      8          6           0        5.202525    3.259546    0.042732
      9          6           0        6.382407    2.537154    0.215235
     10          7           0        6.430234    1.215221    0.297556
     11          6           0        5.242713    0.583897    0.188742
     12          7           0        4.059080    1.175279    0.021647
     13          7           0        5.319573   -0.778606    0.277049
     14          6           0        4.316557   -1.764267    0.245230
     15          6           0        4.682621   -3.091531    0.550515
     16          6           0        3.683672   -4.060108    0.524365
     17          6           0        2.355135   -3.782740    0.209733
     18          6           0        2.020101   -2.467328   -0.098266
     19          6           0        2.996723   -1.471972   -0.077521
     20          7           0        0.732564   -2.028972   -0.455950
     21          6           0       -0.466409   -2.682019   -0.366350
     22          6           0       -1.660552   -1.848318   -0.749804
     23          6           0       -1.653078   -0.452151   -0.831865
     24          6           0       -2.799021    0.234570   -1.212257
     25          6           0       -3.984010   -0.443460   -1.499457
     26          6           0       -3.983710   -1.838070   -1.416787
     27          6           0       -2.842393   -2.532521   -1.040345
     28          6           0       -5.248067    0.321858   -1.862629
     29          7           0       -6.140594    0.722466   -0.787843
     30          6           0       -5.655004    1.735967    0.141762
     31          6           0       -5.000084    1.156643    1.406946
     32          7           0       -5.841237    0.175736    2.087189
     33          6           0       -6.954648    0.758605    2.814074
     34          6           0       -6.230822   -0.874405    1.150131
     35          6           0       -6.902966   -0.327133   -0.120412
     36          8           0       -0.579985   -3.849002   -0.026167
     37          6           0        6.103612   -3.452067    0.902593
     38          1           0        0.782085    5.830501    0.508268
     39          1           0        3.122203    4.998782    0.760530
     40          1           0        1.870933    1.383652   -1.183422
     41          1           0       -0.916800    4.337229   -0.534439
     42          1           0        5.212871    4.339082   -0.043147
     43          1           0        7.337982    3.052182    0.290472
     44          1           0        6.265092   -1.095208    0.431637
     45          1           0        3.953714   -5.085949    0.762140
     46          1           0        1.601089   -4.556847    0.204972
     47          1           0        2.726007   -0.448021   -0.282576
     48          1           0        0.702454   -1.085129   -0.807396
     49          1           0       -0.776107    0.141267   -0.585085
     50          1           0       -2.762439    1.319273   -1.279406
     51          1           0       -4.893950   -2.386731   -1.648939
     52          1           0       -2.841878   -3.614983   -0.966460
     53          1           0       -4.961276    1.233870   -2.401421
     54          1           0       -5.838148   -0.283357   -2.561954
     55          1           0       -4.951447    2.390466   -0.385493
     56          1           0       -6.510066    2.363513    0.435334
     57          1           0       -4.760631    1.963968    2.109906
     58          1           0       -4.059526    0.659754    1.142186
     59          1           0       -7.699171    1.292763    2.197863
     60          1           0       -6.566829    1.468307    3.553253
     61          1           0       -7.480954   -0.034830    3.356024
     62          1           0       -6.905550   -1.571735    1.661210
     63          1           0       -5.324762   -1.429320    0.880248
     64          1           0       -7.887251    0.087740    0.143770
     65          1           0       -7.085896   -1.138333   -0.834378
     66          1           0        6.454316   -2.917599    1.795213
     67          1           0        6.803140   -3.229838    0.085237
     68          1           0        6.188273   -4.521339    1.111925
 ---------------------------------------------------------------------

 The electronic state is 1-A.
 Alpha  occ. eigenvalues --  -19.23284 -14.49311 -14.48399 -14.46771 -14.46126
 Alpha  occ. eigenvalues --  -14.45871 -14.43444 -14.42832 -10.41819 -10.40152
 Alpha  occ. eigenvalues --  -10.37644 -10.36361 -10.35300 -10.35231 -10.34643
 Alpha  occ. eigenvalues --  -10.34150 -10.33997 -10.33664 -10.32863 -10.32297
 Alpha  occ. eigenvalues --  -10.31876 -10.31132 -10.31059 -10.31051 -10.30945
 Alpha  occ. eigenvalues --  -10.30744 -10.30399 -10.30386 -10.30362 -10.30325
 Alpha  occ. eigenvalues --  -10.30173 -10.30162 -10.30106 -10.30036 -10.29516
 Alpha  occ. eigenvalues --  -10.28709 -10.28311  -1.13480  -1.12317  -1.06375
 Alpha  occ. eigenvalues --   -1.04592  -1.03635  -1.03600  -1.00740  -0.99342
 Alpha  occ. eigenvalues --   -0.96055  -0.94693  -0.93142  -0.89805  -0.88078
 Alpha  occ. eigenvalues --   -0.87399  -0.86252  -0.85199  -0.84533  -0.83772
 Alpha  occ. eigenvalues --   -0.81725  -0.79531  -0.78273  -0.77718  -0.76340
 Alpha  occ. eigenvalues --   -0.73952  -0.73055  -0.72983  -0.72644  -0.70875
 Alpha  occ. eigenvalues --   -0.70324  -0.69544  -0.67989  -0.66453  -0.65242
 Alpha  occ. eigenvalues --   -0.63729  -0.63329  -0.62284  -0.61851  -0.60211
 Alpha  occ. eigenvalues --   -0.58870  -0.58004  -0.57564  -0.56466  -0.56202
 Alpha  occ. eigenvalues --   -0.55781  -0.55079  -0.54904  -0.54736  -0.54336
 Alpha  occ. eigenvalues --   -0.53658  -0.53209  -0.52986  -0.52413  -0.52087
 Alpha  occ. eigenvalues --   -0.51890  -0.51562  -0.51329  -0.50924  -0.50712
 Alpha  occ. eigenvalues --   -0.50519  -0.50388  -0.49942  -0.49437  -0.48335
 Alpha  occ. eigenvalues --   -0.47286  -0.46715  -0.46540  -0.46443  -0.46060
 Alpha  occ. eigenvalues --   -0.45583  -0.44956  -0.44607  -0.43944  -0.43744
 Alpha  occ. eigenvalues --   -0.43354  -0.43151  -0.42134  -0.41689  -0.41267
 Alpha  occ. eigenvalues --   -0.40729  -0.40633  -0.39892  -0.38214  -0.37563
 Alpha  occ. eigenvalues --   -0.35836  -0.35359  -0.33920  -0.33575  -0.33262
 Alpha  occ. eigenvalues --   -0.32900  -0.32020  -0.30634  -0.29158  -0.27013
 Alpha  occ. eigenvalues --   -0.24766
 Alpha virt. eigenvalues --   -0.00257   0.02894   0.03199   0.04358   0.06537
 Alpha virt. eigenvalues --    0.07196   0.08457   0.10624   0.13526   0.14911
 Alpha virt. eigenvalues --    0.15918   0.16358   0.17277   0.17674   0.18732

 Mulliken atomic charges:
              1
     1  C   -0.195428
     2  C   -0.154970
     3  C    0.039063
     4  C    0.014682
     5  N   -0.432861
     6  C    0.028065
     7  C    0.290733
     8  C   -0.257047
     9  C    0.050151
    10  N   -0.494767
    11  C    0.719268
    12  N   -0.566426
    13  N   -0.810905
    14  C    0.288655
    15  C    0.120404
    16  C   -0.241419
    17  C   -0.187658
    18  C    0.364121
    19  C   -0.270702
    20  N   -0.780599
    21  C    0.612475
    22  C    0.017053
    23  C   -0.210706
    24  C   -0.226437
    25  C    0.160079
    26  C   -0.223212
    27  C   -0.178172
    28  C   -0.263884
    29  N   -0.381382
    30  C   -0.184400
    31  C   -0.182450
    32  N   -0.383739
    33  C   -0.349382
    34  C   -0.183813
    35  C   -0.185961
    36  O   -0.521018
    37  C   -0.609412
    38  H    0.186821
    39  H    0.187371
    40  H    0.189851
    41  H    0.182088
    42  H    0.181431
    43  H    0.189695
    44  H    0.370017
    45  H    0.160492
    46  H    0.213605
    47  H    0.204509
    48  H    0.362152
    49  H    0.178572
    50  H    0.170156
    51  H    0.164347
    52  H    0.201600
    53  H    0.169241
    54  H    0.169596
    55  H    0.149570
    56  H    0.158720
    57  H    0.150193
    58  H    0.173065
    59  H    0.134264
    60  H    0.165893
    61  H    0.167540
    62  H    0.153478
    63  H    0.173241
    64  H    0.159255
    65  H    0.152613
    66  H    0.183039
    67  H    0.178592
    68  H    0.190992
 Sum of Mulliken atomic charges =   0.00000

 Dipole moment (field-independent basis, Debye):
    X=              2.2684    Y=              6.0722    Z=             -0.1717  Tot=              6.4844
 Quadrupole moment (field-independent basis, Debye-Ang):
   XX=           -188.4989   YY=           -195.1452   ZZ=           -221.6165
   XY=              6.1933   XZ=              4.3056   YZ=              5.4983

 Normal termination of Gaussian 09 at Tue Mar 10 13:16:50 2020.
