                               Psi4 1.3.2 release

  ==> Input File <==

--------------------------------------------------------------------------
molecule {
0 1
 C    0.406195    5.310475    0.900790
 C    1.543770    4.857902    0.219070
 C    2.125565    3.620923    0.562554
 C    1.496023    2.912262    1.616295
 N    0.410767    3.332457    2.278531
 C   -0.120573    4.510029    1.920174
 C    3.338296    3.050723   -0.128387
 C    4.045818    3.664338   -1.176345
 C    5.132173    2.943004   -1.686260
 N    5.508518    1.744075   -1.250349
 C    4.761805    1.234880   -0.251680
 N    3.712799    1.834341    0.312410
 N    5.135148   -0.003743    0.198127
 C    4.422017   -1.246316    0.236369
 C    5.142358   -2.464429    0.418927
 C    4.392872   -3.651626    0.445628
 C    3.000817   -3.696953    0.310121
 C    2.307806   -2.492288    0.146203
 C    3.027663   -1.285826    0.098712
 N    0.890002   -2.364013   -0.012698
 C   -0.088924   -3.313652   -0.192925
 C   -1.468213   -2.833301   -0.599291
 C   -1.674289   -1.739152   -1.455444
 C   -2.968713   -1.331029   -1.783148
 C   -4.099295   -1.996504   -1.273546
 C   -3.878007   -3.094206   -0.419545
 C   -2.586590   -3.520682   -0.100095
 C   -5.512733   -1.503458   -1.588027
 N   -6.082011   -0.406815   -0.783560
 C   -5.597993    0.973813   -1.011365
 C   -4.446736    1.417525   -0.072209
 N   -4.744024    1.242683    1.368650
 C   -5.536254    2.295693    2.013532
 C   -5.185557   -0.153664    1.599232
 C   -6.322871   -0.634874    0.660206
 O    0.112253   -4.504894   -0.019619
 C    6.652679   -2.528500    0.568783
 H   -0.062487    6.257129    0.649080
 H    1.947519    5.481144   -0.575213
 H    1.897480    1.955940    1.940616
 H   -1.003189    4.820745    2.476705
 H    3.796047    4.633908   -1.589306
 H    5.732870    3.354357   -2.497086
 H    6.110846    0.002190    0.456821
 H    4.907593   -4.602643    0.577006
 H    2.463268   -4.637001    0.333308
 H    2.504089   -0.346792   -0.023637
 H    0.566507   -1.408543   -0.071269
 H   -0.816759   -1.214886   -1.869832
 H   -3.095131   -0.474183   -2.444794
 H   -4.724616   -3.630983    0.007945
 H   -2.424545   -4.373034    0.555100
 H   -5.543994   -1.178919   -2.638259
 H   -6.204764   -2.353265   -1.495699
 H   -5.369834    1.132382   -2.046287
 H   -6.804163    1.936227   -0.670256
 H   -4.205790    2.869609   -0.331445
 H   -3.489731    0.865095   -0.299745
 H   -6.554294    2.326316    1.609551
 H   -5.064258    3.272453    1.858320
 H   -5.590650    2.118814    3.093854
 H   -5.546013   -0.289348    2.834071
 H   -4.017855   -1.015923    1.371224
 H   -7.580080    0.238224    1.054975
 H   -6.593427   -1.666899    0.843670
 H    6.983410   -2.037266    1.494793
 H    7.161980   -2.032000   -0.269548
 H    7.036740   -3.557501    0.602235
}
memory 20GB
set_num_threads(6)
psi4_io.set_default_path("/scratch/bdw2292")
set freeze_core True
E, wfn = energy('mp2/6-311++G**',return_wfn=True)
oeprop(wfn,"WIBERG_LOWDIN_INDICES")
clean()
--------------------------------------------------------------------------

    Molecular point group: c1

    Geometry (in Angstrom), charge = 0, multiplicity = 1:

       Center              X                  Y                   Z               Mass
    ------------   -----------------  -----------------  -----------------  -----------------
         C            0.277843768086     5.307588086337     0.831934254590    12.000000000000
         C            1.415418768086     4.855015086337     0.150214254590    12.000000000000
         C            1.997213768086     3.618036086337     0.493698254590    12.000000000000
         C            1.367671768086     2.909375086337     1.547439254590    12.000000000000
         N            0.282415768086     3.329570086337     2.209675254590    14.003074004430
         C           -0.248924231914     4.507142086337     1.851318254590    12.000000000000
         C            3.209944768086     3.047836086337    -0.197242745410    12.000000000000
         C            3.917466768086     3.661451086337    -1.245200745410    12.000000000000
         C            5.003821768086     2.940117086337    -1.755115745410    12.000000000000
         N            5.380166768086     1.741188086337    -1.319204745410    14.003074004430
         C            4.633453768086     1.231993086337    -0.320535745410    12.000000000000
         N            3.584447768086     1.831454086337     0.243554254590    14.003074004430
         N            5.006796768086    -0.006629913663     0.129271254590    14.003074004430
         C            4.293665768086    -1.249202913663     0.167513254590    12.000000000000
         C            5.014006768086    -2.467315913663     0.350071254590    12.000000000000
         C            4.264520768086    -3.654512913663     0.376772254590    12.000000000000
         C            2.872465768086    -3.699839913663     0.241265254590    12.000000000000
         C            2.179454768086    -2.495174913663     0.077347254590    12.000000000000
         C            2.899311768086    -1.288712913663     0.029856254590    12.000000000000
         N            0.761650768086    -2.366899913663    -0.081553745410    14.003074004430
         C           -0.217275231914    -3.316538913663    -0.261780745410    12.000000000000
         C           -1.596564231914    -2.836187913663    -0.668146745410    12.000000000000
         C           -1.802640231914    -1.742038913663    -1.524299745410    12.000000000000
         C           -3.097064231914    -1.333915913663    -1.852003745410    12.000000000000
         C           -4.227646231914    -1.999390913663    -1.342401745410    12.000000000000
         C           -4.006358231914    -3.097092913663    -0.488400745410    12.000000000000
         C           -2.714941231914    -3.523568913663    -0.168950745410    12.000000000000
         C           -5.641084231914    -1.506344913663    -1.656882745410    12.000000000000
         N           -6.210362231914    -0.409701913663    -0.852415745410    14.003074004430
         C           -5.726344231914     0.970926086337    -1.080220745410    12.000000000000
         C           -4.575087231914     1.414638086337    -0.141064745410    12.000000000000
         N           -4.872375231914     1.239796086337     1.299794254590    14.003074004430
         C           -5.664605231914     2.292806086337     1.944676254590    12.000000000000
         C           -5.313908231914    -0.156550913663     1.530376254590    12.000000000000
         C           -6.451222231914    -0.637760913663     0.591350254590    12.000000000000
         O           -0.016098231914    -4.507780913663    -0.088474745410    15.994914619570
         C            6.524327768086    -2.531386913663     0.499927254590    12.000000000000
         H           -0.190838231914     6.254242086337     0.580224254590     1.007825032230
         H            1.819167768086     5.478257086337    -0.644068745410     1.007825032230
         H            1.769128768086     1.953053086337     1.871760254590     1.007825032230
         H           -1.131540231914     4.817858086337     2.407849254590     1.007825032230
         H            3.667695768086     4.631021086337    -1.658161745410     1.007825032230
         H            5.604518768086     3.351470086337    -2.565941745410     1.007825032230
         H            5.982494768086    -0.000696913663     0.387965254590     1.007825032230
         H            4.779241768086    -4.605529913663     0.508150254590     1.007825032230
         H            2.334916768086    -4.639887913663     0.264452254590     1.007825032230
         H            2.375737768086    -0.349678913663    -0.092492745410     1.007825032230
         H            0.438155768086    -1.411429913663    -0.140124745410     1.007825032230
         H           -0.945110231914    -1.217772913663    -1.938687745410     1.007825032230
         H           -3.223482231914    -0.477069913663    -2.513649745410     1.007825032230
         H           -4.852967231914    -3.633869913663    -0.060910745410     1.007825032230
         H           -2.552896231914    -4.375920913663     0.486244254590     1.007825032230
         H           -5.672345231914    -1.181805913663    -2.707114745410     1.007825032230
         H           -6.333115231914    -2.356151913663    -1.564554745410     1.007825032230
         H           -5.498185231914     1.129495086337    -2.115142745410     1.007825032230
         H           -6.932514231914     1.933340086337    -0.739111745410     1.007825032230
         H           -4.334141231914     2.866722086337    -0.400300745410     1.007825032230
         H           -3.618082231914     0.862208086337    -0.368600745410     1.007825032230
         H           -6.682645231914     2.323429086337     1.540695254590     1.007825032230
         H           -5.192609231914     3.269566086337     1.789464254590     1.007825032230
         H           -5.719001231914     2.115927086337     3.024998254590     1.007825032230
         H           -5.674364231914    -0.292234913663     2.765215254590     1.007825032230
         H           -4.146206231914    -1.018809913663     1.302368254590     1.007825032230
         H           -7.708431231914     0.235337086337     0.986119254590     1.007825032230
         H           -6.721778231914    -1.669785913663     0.774814254590     1.007825032230
         H            6.855058768086    -2.040152913663     1.425937254590     1.007825032230
         H            7.033628768086    -2.034886913663    -0.338403745410     1.007825032230
         H            6.908388768086    -3.560387913663     0.533379254590     1.007825032230

  Charge       = 0
  Multiplicity = 1
  Basis Set: 6-311++G**
    Blend: 6-311++G**
  Basis Set: (6-311++G** AUX)
    Blend: AUG-CC-PVTZ-JKFIT

    Orbital Energies [Eh]
    ---------------------

    Doubly Occupied:

       1A    -20.524659     2A    -15.604273     3A    -15.582519
       4A    -15.577898     5A    -15.577351     6A    -15.576717
       7A    -15.575924     8A    -15.557350     9A    -11.367655
      10A    -11.366965    11A    -11.332420    12A    -11.317488
      13A    -11.312921    14A    -11.311043    15A    -11.308444
      16A    -11.304350    17A    -11.300566    18A    -11.293813
      19A    -11.293689    20A    -11.291941    21A    -11.285614
      22A    -11.284257    23A    -11.274609    24A    -11.264872
      25A    -11.264793    26A    -11.263526    27A    -11.260005
      28A    -11.259438    29A    -11.256890    30A    -11.255594
      31A    -11.253206    32A    -11.244857    33A    -11.241733
      34A    -11.238097    35A    -11.231950    36A    -11.230907
      37A    -11.220545    38A     -1.390325    39A     -1.346707
      40A     -1.270243    41A     -1.252028    42A     -1.250606
      43A     -1.240304    44A     -1.212266    45A     -1.203669
      46A     -1.169506    47A     -1.138290    48A     -1.110846
      49A     -1.073399    50A     -1.064431    51A     -1.044461
      52A     -1.037536    53A     -1.032245    54A     -1.005332
      55A     -1.003167    56A     -0.982138    57A     -0.946092
      58A     -0.930320    59A     -0.923865    60A     -0.899878
      61A     -0.869889    62A     -0.866475    63A     -0.854208
      64A     -0.850055    65A     -0.840245    66A     -0.837814
      67A     -0.823891    68A     -0.810179    69A     -0.779709
      70A     -0.752833    71A     -0.738746    72A     -0.731557
      73A     -0.716701    74A     -0.715512    75A     -0.710779
      76A     -0.685208    77A     -0.681271    78A     -0.666720
      79A     -0.665802    80A     -0.655326    81A     -0.654885
      82A     -0.649883    83A     -0.638574    84A     -0.637406
      85A     -0.626204    86A     -0.618418    87A     -0.614421
      88A     -0.608431    89A     -0.606093    90A     -0.603022
      91A     -0.600161    92A     -0.591643    93A     -0.589065
      94A     -0.586837    95A     -0.585860    96A     -0.582506
      97A     -0.579484    98A     -0.576107    99A     -0.566418
     100A     -0.550540   101A     -0.547967   102A     -0.545212
     103A     -0.539237   104A     -0.536181   105A     -0.529012
     106A     -0.522877   107A     -0.511633   108A     -0.508734
     109A     -0.508607   110A     -0.507386   111A     -0.503447
     112A     -0.497857   113A     -0.487433   114A     -0.472002
     115A     -0.450047   116A     -0.449561   117A     -0.435455
     118A     -0.432108   119A     -0.425151   120A     -0.420862
     121A     -0.414949   122A     -0.398033   123A     -0.397288
     124A     -0.383747   125A     -0.377394   126A     -0.353597
     127A     -0.349556   128A     -0.340836   129A     -0.316518
     130A     -0.314522   131A     -0.288488

  @DF-RHF Final Energy: -1572.30547954034228

   => Energetics <=

    Nuclear Repulsion Energy =           3706.0881624363646552
    One-Electron Energy =               -9510.1450773091801238
    Two-Electron Energy =                4231.7514353324731928
    Total Energy =                      -1572.3054795403422759

  Dipole Moment: [D]
     X:     0.4697      Y:     5.8811      Z:    -2.5323     Total:     6.4203

  Basis Set: (6-311++G** AUX)
    Blend: AUG-CC-PVTZ-RI
	 Reference Energy          =   -1572.3054795403422759 [Eh]
	 Singles Energy            =      -0.0000000000000000 [Eh]
	 Same-Spin Energy          =      -1.4700756846316443 [Eh]
	 Opposite-Spin Energy      =      -4.0473570789304132 [Eh]
	 Correlation Energy        =      -5.5174327635620575 [Eh]
	 Total Energy              =   -1577.8229123039043316 [Eh]

	 ================> DF-SCS-MP2 Energies <==================
	-----------------------------------------------------------
	 SCS Same-Spin Scale       =       0.3333333333333333 [-]
	 SCS Opposite-Spin Scale   =       1.2000000000000000 [-]
	 SCS Same-Spin Energy      =      -0.4900252282105481 [Eh]
	 SCS Opposite-Spin Energy  =      -4.8568284947164955 [Eh]
	 SCS Correlation Energy    =      -5.3468537229270439 [Eh]
	 SCS Total Energy          =   -1577.6523332632693837 [Eh]
	-----------------------------------------------------------

*** Psi4 exiting successfully. Buy a developer a beer!
