                               Psi4 1.3.2 release

  ==> Input File <==

--------------------------------------------------------------------------
molecule {
0 1
 C    8.713348   -0.677098   -2.495307
 C    8.080939    0.431347   -1.917071
 C    6.885178    0.261587   -1.190577
 C    6.396828   -1.066205   -1.102049
 N    6.989414   -2.135568   -1.649636
 C    8.126621   -1.936312   -2.331151
 C    6.142972    1.398961   -0.536001
 C    6.525168    2.750817   -0.573059
 C    5.683903    3.641262    0.104001
 N    4.584222    3.284088    0.761304
 C    4.304480    1.965449    0.746519
 N    5.031582    1.034444    0.130663
 N    3.172942    1.604013    1.433986
 C    2.534662    0.336349    1.581315
 C    3.210533   -0.748309    2.214553
 C    2.514972   -1.963687    2.310431
 C    1.215876   -2.156481    1.828542
 C    0.562705   -1.078006    1.220785
 C    1.231384    0.153904    1.101483
 N   -0.756797   -1.118085    0.663056
 C   -1.734254   -2.084767    0.732317
 C   -3.045494   -1.821933    0.017066
 C   -3.145022   -1.062586   -1.160382
 C   -4.387414   -0.845602   -1.759728
 C   -5.568380   -1.386554   -1.217450
 C   -5.449822   -2.176742   -0.058384
 C   -4.210586   -2.403292    0.544798
 C   -6.930220   -1.103060   -1.853815
 N   -7.668624    0.102872   -1.436222
 C   -7.175780    1.426445   -1.880207
 C   -6.242572    2.135761   -0.865243
 N   -6.808375    2.262196    0.497818
 C   -7.729542    3.380896    0.727804
 C   -7.263681    0.926613    0.952630
 C   -8.184583    0.182696   -0.049837
 O   -1.587372   -3.121529    1.359365
 C    4.606483   -0.652386    2.807838
 H    9.635277   -0.569986   -3.059107
 H    8.540445    1.408406   -2.044242
 H    5.475167   -1.269347   -0.563380
 H    8.582490   -2.825491   -2.763694
 H    7.405359    3.118573   -1.085625
 H    5.910380    4.707196    0.118889
 H    2.599709    2.329540    1.841132
 H    2.997296   -2.815874    2.787738
 H    0.719440   -3.114564    1.922862
 H    0.760674    1.000002    0.619134
 H   -1.055523   -0.245875    0.250892
 H   -2.247008   -0.642324   -1.606224
 H   -4.433578   -0.236352   -2.662593
 H   -6.338217   -2.617407    0.393186
 H   -4.128283   -3.011668    1.442036
 H   -6.800736   -1.039859   -2.944070
 H   -7.589125   -1.962959   -1.664732
 H   -6.757279    1.365381   -2.842326
 H   -8.436829    2.360629   -2.004722
 H   -5.968804    3.491135   -1.388196
 H   -5.173621    1.542037   -0.773973
 H   -8.646552    3.263294    0.139969
 H   -7.251258    4.327504    0.451785
 H   -7.996271    3.438109    1.789303
 H   -7.830332    1.038844    2.052877
 H   -6.082144    0.125655    1.150281
 H   -9.512275    1.049113   -0.106530
 H   -8.468121   -0.788318    0.303538
 H    4.804224    0.335036    3.246943
 H    5.377352   -0.831871    2.046526
 H    4.774428   -1.384000    3.610430
}
memory 20GB
set_num_threads(6)
psi4_io.set_default_path("/scratch/bdw2292")
set freeze_core True
E, wfn = energy('mp2/6-311++G**',return_wfn=True)
oeprop(wfn,"WIBERG_LOWDIN_INDICES")
clean()
--------------------------------------------------------------------------

    Molecular point group: c1

    Geometry (in Angstrom), charge = 0, multiplicity = 1:

       Center              X                  Y                   Z               Mass
    ------------   -----------------  -----------------  -----------------  -----------------
         C            8.594207607395    -0.640902055146    -2.496935321677    12.000000000000
         C            7.961798607395     0.467542944854    -1.918699321677    12.000000000000
         C            6.766037607395     0.297782944854    -1.192205321677    12.000000000000
         C            6.277687607395    -1.030009055146    -1.103677321677    12.000000000000
         N            6.870273607395    -2.099372055146    -1.651264321677    14.003074004430
         C            8.007480607395    -1.900116055146    -2.332779321677    12.000000000000
         C            6.023831607395     1.435156944854    -0.537629321677    12.000000000000
         C            6.406027607395     2.787012944854    -0.574687321677    12.000000000000
         C            5.564762607395     3.677457944854     0.102372678323    12.000000000000
         N            4.465081607395     3.320283944854     0.759675678323    14.003074004430
         C            4.185339607395     2.001644944854     0.744890678323    12.000000000000
         N            4.912441607395     1.070639944854     0.129034678323    14.003074004430
         N            3.053801607395     1.640208944854     1.432357678323    14.003074004430
         C            2.415521607395     0.372544944854     1.579686678323    12.000000000000
         C            3.091392607395    -0.712113055146     2.212924678323    12.000000000000
         C            2.395831607395    -1.927491055146     2.308802678323    12.000000000000
         C            1.096735607395    -2.120285055146     1.826913678323    12.000000000000
         C            0.443564607395    -1.041810055146     1.219156678323    12.000000000000
         C            1.112243607395     0.190099944854     1.099854678323    12.000000000000
         N           -0.875937392605    -1.081889055146     0.661427678323    14.003074004430
         C           -1.853394392605    -2.048571055146     0.730688678323    12.000000000000
         C           -3.164634392605    -1.785737055146     0.015437678323    12.000000000000
         C           -3.264162392605    -1.026390055146    -1.162010321677    12.000000000000
         C           -4.506554392605    -0.809406055146    -1.761356321677    12.000000000000
         C           -5.687520392605    -1.350358055146    -1.219078321677    12.000000000000
         C           -5.568962392605    -2.140546055146    -0.060012321677    12.000000000000
         C           -4.329726392605    -2.367096055146     0.543169678323    12.000000000000
         C           -7.049360392605    -1.066864055146    -1.855443321677    12.000000000000
         N           -7.787764392605     0.139067944854    -1.437850321677    14.003074004430
         C           -7.294920392605     1.462640944854    -1.881835321677    12.000000000000
         C           -6.361712392605     2.171956944854    -0.866871321677    12.000000000000
         N           -6.927515392605     2.298391944854     0.496189678323    14.003074004430
         C           -7.848682392605     3.417091944854     0.726175678323    12.000000000000
         C           -7.382821392605     0.962808944854     0.951001678323    12.000000000000
         C           -8.303723392605     0.218891944854    -0.051465321677    12.000000000000
         O           -1.706512392605    -3.085333055146     1.357736678323    15.994914619570
         C            4.487342607395    -0.616190055146     2.806209678323    12.000000000000
         H            9.516136607395    -0.533790055146    -3.060735321677     1.007825032230
         H            8.421304607395     1.444601944854    -2.045870321677     1.007825032230
         H            5.356026607395    -1.233151055146    -0.565008321677     1.007825032230
         H            8.463349607395    -2.789295055146    -2.765322321677     1.007825032230
         H            7.286218607395     3.154768944854    -1.087253321677     1.007825032230
         H            5.791239607395     4.743391944854     0.117260678323     1.007825032230
         H            2.480568607395     2.365735944854     1.839503678323     1.007825032230
         H            2.878155607395    -2.779678055146     2.786109678323     1.007825032230
         H            0.600299607395    -3.078368055146     1.921233678323     1.007825032230
         H            0.641533607395     1.036197944854     0.617505678323     1.007825032230
         H           -1.174663392605    -0.209679055146     0.249263678323     1.007825032230
         H           -2.366148392605    -0.606128055146    -1.607852321677     1.007825032230
         H           -4.552718392605    -0.200156055146    -2.664221321677     1.007825032230
         H           -6.457357392605    -2.581211055146     0.391557678323     1.007825032230
         H           -4.247423392605    -2.975472055146     1.440407678323     1.007825032230
         H           -6.919876392605    -1.003663055146    -2.945698321677     1.007825032230
         H           -7.708265392605    -1.926763055146    -1.666360321677     1.007825032230
         H           -6.876419392605     1.401576944854    -2.843954321677     1.007825032230
         H           -8.555969392605     2.396824944854    -2.006350321677     1.007825032230
         H           -6.087944392605     3.527330944854    -1.389824321677     1.007825032230
         H           -5.292761392605     1.578232944854    -0.775601321677     1.007825032230
         H           -8.765692392605     3.299489944854     0.138340678323     1.007825032230
         H           -7.370398392605     4.363699944854     0.450156678323     1.007825032230
         H           -8.115411392605     3.474304944854     1.787674678323     1.007825032230
         H           -7.949472392605     1.075039944854     2.051248678323     1.007825032230
         H           -6.201284392605     0.161850944854     1.148652678323     1.007825032230
         H           -9.631415392605     1.085308944854    -0.108158321677     1.007825032230
         H           -8.587261392605    -0.752122055146     0.301909678323     1.007825032230
         H            4.685083607395     0.371231944854     3.245314678323     1.007825032230
         H            5.258211607395    -0.795675055146     2.044897678323     1.007825032230
         H            4.655287607395    -1.347804055146     3.608801678323     1.007825032230

  Charge       = 0
  Multiplicity = 1
  Basis Set: 6-311++G**
    Blend: 6-311++G**
  Basis Set: (6-311++G** AUX)
    Blend: AUG-CC-PVTZ-JKFIT

    Orbital Energies [Eh]
    ---------------------

    Doubly Occupied:

       1A    -20.528085     2A    -15.609536     3A    -15.591910
       4A    -15.577592     5A    -15.572638     6A    -15.564942
       7A    -15.560933     8A    -15.559512     9A    -11.371822
      10A    -11.367194    11A    -11.325968    12A    -11.313474
      13A    -11.312515    14A    -11.311469    15A    -11.307271
      16A    -11.306157    17A    -11.298150    18A    -11.290974
      19A    -11.289141    20A    -11.287326    21A    -11.286578
      22A    -11.278658    23A    -11.268429    24A    -11.267754
      25A    -11.267031    26A    -11.266392    27A    -11.258948
      28A    -11.257844    29A    -11.255223    30A    -11.254388
      31A    -11.246697    32A    -11.246030    33A    -11.244964
      34A    -11.243664    35A    -11.238459    36A    -11.232727
      37A    -11.221156    38A     -1.394537    39A     -1.339555
      40A     -1.265254    41A     -1.256579    42A     -1.251939
      43A     -1.240693    44A     -1.205360    45A     -1.202596
      46A     -1.171936    47A     -1.139848    48A     -1.105831
      49A     -1.069359    50A     -1.065405    51A     -1.039436
      52A     -1.038745    53A     -1.034383    54A     -1.006660
      55A     -1.005041    56A     -0.983600    57A     -0.944870
      58A     -0.930033    59A     -0.917212    60A     -0.894076
      61A     -0.872160    62A     -0.862012    63A     -0.852686
      64A     -0.846108    65A     -0.841726    66A     -0.839091
      67A     -0.834401    68A     -0.810155    69A     -0.779482
      70A     -0.752635    71A     -0.744142    72A     -0.729028
      73A     -0.716164    74A     -0.713451    75A     -0.695096
      76A     -0.688012    77A     -0.675160    78A     -0.667285
      79A     -0.660648    80A     -0.658182    81A     -0.650919
      82A     -0.648225    83A     -0.645044    84A     -0.635056
      85A     -0.628967    86A     -0.624149    87A     -0.611787
      88A     -0.609274    89A     -0.605194    90A     -0.600928
      91A     -0.598739    92A     -0.597132    93A     -0.592445
      94A     -0.591663    95A     -0.586360    96A     -0.583529
      97A     -0.581759    98A     -0.569756    99A     -0.567190
     100A     -0.548333   101A     -0.547801   102A     -0.540797
     103A     -0.536828   104A     -0.532560   105A     -0.531371
     106A     -0.522772   107A     -0.512324   108A     -0.511565
     109A     -0.506212   110A     -0.505214   111A     -0.502002
     112A     -0.498463   113A     -0.486326   114A     -0.472115
     115A     -0.456515   116A     -0.443570   117A     -0.436064
     118A     -0.429602   119A     -0.428921   120A     -0.427340
     121A     -0.405906   122A     -0.398909   123A     -0.388565
     124A     -0.385869   125A     -0.360478   126A     -0.355892
     127A     -0.351432   128A     -0.338681   129A     -0.320003
     130A     -0.316850   131A     -0.299462

  @DF-RHF Final Energy: -1572.32583348796084

   => Energetics <=

    Nuclear Repulsion Energy =           3546.3144583953585425
    One-Electron Energy =               -9190.7826206013069168
    Two-Electron Energy =                4072.1423287179882209
    Total Energy =                      -1572.3258334879606082

  Dipole Moment: [D]
     X:     1.7380      Y:     3.6898      Z:    -2.5165     Total:     4.7925

  Basis Set: (6-311++G** AUX)
    Blend: AUG-CC-PVTZ-RI
	 Reference Energy          =   -1572.3258334879608356 [Eh]
	 Singles Energy            =      -0.0000000000000000 [Eh]
	 Same-Spin Energy          =      -1.4692256597896662 [Eh]
	 Opposite-Spin Energy      =      -4.0458023192069810 [Eh]
	 Correlation Energy        =      -5.5150279789966472 [Eh]
	 Total Energy              =   -1577.8408614669574490 [Eh]

	 ================> DF-SCS-MP2 Energies <==================
	-----------------------------------------------------------
	 SCS Same-Spin Scale       =       0.3333333333333333 [-]
	 SCS Opposite-Spin Scale   =       1.2000000000000000 [-]
	 SCS Same-Spin Energy      =      -0.4897418865965554 [Eh]
	 SCS Opposite-Spin Energy  =      -4.8549627830483768 [Eh]
	 SCS Correlation Energy    =      -5.3447046696449325 [Eh]
	 SCS Total Energy          =   -1577.6705381576057334 [Eh]
	-----------------------------------------------------------

*** Psi4 exiting successfully. Buy a developer a beer!
