                               Psi4 1.3.2 release

  ==> Input File <==

--------------------------------------------------------------------------
molecule {
0 1
 C    0.113635    4.481811   -0.628642
 C    1.484110    4.412610   -0.343276
 C    2.139366    3.166140   -0.348412
 C    1.338555    2.048529   -0.690696
 N    0.029615    2.094564   -0.969761
 C   -0.566744    3.296253   -0.930096
 C    3.600624    2.982438   -0.024642
 C    4.536253    4.014562    0.153909
 C    5.849758    3.607061    0.419967
 N    6.236890    2.336937    0.525156
 C    5.268600    1.413419    0.360261
 N    3.994674    1.702343    0.093739
 N    5.663870    0.093780    0.486528
 C    4.980001   -1.157037    0.265979
 C    5.736022   -2.343765    0.024686
 C    5.017546   -3.527396   -0.215495
 C    3.619679   -3.604954   -0.233743
 C    2.888325   -2.443232    0.035284
 C    3.582005   -1.249046    0.286951
 N    1.459294   -2.337398    0.059330
 C    0.466630   -3.229383   -0.277735
 C   -0.958640   -2.706830   -0.329387
 C   -1.296145   -1.375123   -0.628256
 C   -2.630003   -0.960649   -0.612074
 C   -3.678277   -1.854948   -0.322170
 C   -3.329602   -3.197117   -0.073966
 C   -1.997869   -3.620166   -0.083698
 C   -5.137373   -1.391210   -0.314338
 N   -5.401427   -0.074480    0.297287
 C   -6.045919   -0.043019    1.625876
 C   -7.593398   -0.000126    1.550350
 N   -8.127112    1.101207    0.708898
 C   -8.242674    2.414474    1.354620
 C   -7.458311    1.074961   -0.617169
 C   -5.910704    1.030448   -0.542503
 O    0.700891   -4.405500   -0.512458
 C    7.254861   -2.370216   -0.005108
 H   -0.415229    5.430231   -0.616890
 H    2.012454    5.330236   -0.096057
 H    1.780287    1.059600   -0.767297
 H   -1.631236    3.297952   -1.159523
 H    4.307928    5.070407    0.075276
 H    6.656570    4.326387    0.558152
 H    6.660313    0.055588    0.639735
 H    5.565995   -4.447708   -0.412208
 H    3.103421   -4.533198   -0.443985
 H    3.021796   -0.356864    0.513111
 H    1.120953   -1.423181    0.323377
 H   -0.516250   -0.656286   -0.870114
 H   -2.849191    0.083016   -0.833426
 H   -4.108111   -3.931787    0.130535
 H   -1.744503   -4.659387    0.110900
 H   -5.514497   -1.315131   -1.343386
 H   -5.728008   -2.183090    0.165317
 H   -5.622834   -1.164959    2.385740
 H   -5.588976    1.101674    2.304315
 H   -8.070706    0.062995    2.634307
 H   -8.056056   -1.271008    0.933333
 H   -7.254430    2.811549    1.613990
 H   -8.842323    2.335050    2.268785
 H   -8.744138    3.122664    0.684997
 H   -7.828322    1.995575   -1.263787
 H   -7.917699   -0.166877   -1.304047
 H   -5.439931    2.267435    0.020296
 H   -5.355389    0.933829   -1.851844
 H    7.703191   -2.057501    0.948765
 H    7.643770   -1.702408   -0.778973
 H    7.654857   -3.364589   -0.219768
}
memory 20GB
set_num_threads(6)
psi4_io.set_default_path("/scratch/bdw2292")
set freeze_core True
E, wfn = energy('mp2/6-311++G**',return_wfn=True)
oeprop(wfn,"WIBERG_LOWDIN_INDICES")
clean()
--------------------------------------------------------------------------

    Molecular point group: c1

    Geometry (in Angstrom), charge = 0, multiplicity = 1:

       Center              X                  Y                   Z               Mass
    ------------   -----------------  -----------------  -----------------  -----------------
         C           -0.002383085913     4.500246982602    -0.627192121627    12.000000000000
         C            1.368091914087     4.431045982602    -0.341826121627    12.000000000000
         C            2.023347914087     3.184575982602    -0.346962121627    12.000000000000
         C            1.222536914087     2.066964982602    -0.689246121627    12.000000000000
         N           -0.086403085913     2.112999982602    -0.968311121627    14.003074004430
         C           -0.682762085913     3.314688982602    -0.928646121627    12.000000000000
         C            3.484605914087     3.000873982602    -0.023192121627    12.000000000000
         C            4.420234914087     4.032997982602     0.155358878373    12.000000000000
         C            5.733739914087     3.625496982602     0.421416878373    12.000000000000
         N            6.120871914087     2.355372982602     0.526605878373    14.003074004430
         C            5.152581914087     1.431854982602     0.361710878373    12.000000000000
         N            3.878655914087     1.720778982602     0.095188878373    14.003074004430
         N            5.547851914087     0.112215982602     0.487977878373    14.003074004430
         C            4.863982914087    -1.138601017398     0.267428878373    12.000000000000
         C            5.620003914087    -2.325329017398     0.026135878373    12.000000000000
         C            4.901527914087    -3.508960017398    -0.214045121627    12.000000000000
         C            3.503660914087    -3.586518017398    -0.232293121627    12.000000000000
         C            2.772306914087    -2.424796017398     0.036733878373    12.000000000000
         C            3.465986914087    -1.230610017398     0.288400878373    12.000000000000
         N            1.343275914087    -2.318962017398     0.060779878373    14.003074004430
         C            0.350611914087    -3.210947017398    -0.276285121627    12.000000000000
         C           -1.074658085913    -2.688394017398    -0.327937121627    12.000000000000
         C           -1.412163085913    -1.356687017398    -0.626806121627    12.000000000000
         C           -2.746021085913    -0.942213017398    -0.610624121627    12.000000000000
         C           -3.794295085913    -1.836512017398    -0.320720121627    12.000000000000
         C           -3.445620085913    -3.178681017398    -0.072516121627    12.000000000000
         C           -2.113887085913    -3.601730017398    -0.082248121627    12.000000000000
         C           -5.253391085913    -1.372774017398    -0.312888121627    12.000000000000
         N           -5.517445085913    -0.056044017398     0.298736878373    14.003074004430
         C           -6.161937085913    -0.024583017398     1.627325878373    12.000000000000
         C           -7.709416085913     0.018309982602     1.551799878373    12.000000000000
         N           -8.243130085913     1.119642982602     0.710347878373    14.003074004430
         C           -8.358692085913     2.432909982602     1.356069878373    12.000000000000
         C           -7.574329085913     1.093396982602    -0.615719121627    12.000000000000
         C           -6.026722085913     1.048883982602    -0.541053121627    12.000000000000
         O            0.584872914087    -4.387064017398    -0.511008121627    15.994914619570
         C            7.138842914087    -2.351780017398    -0.003658121627    12.000000000000
         H           -0.531247085913     5.448666982602    -0.615440121627     1.007825032230
         H            1.896435914087     5.348671982602    -0.094607121627     1.007825032230
         H            1.664268914087     1.078035982602    -0.765847121627     1.007825032230
         H           -1.747254085913     3.316387982602    -1.158073121627     1.007825032230
         H            4.191909914087     5.088842982602     0.076725878373     1.007825032230
         H            6.540551914087     4.344822982602     0.559601878373     1.007825032230
         H            6.544294914087     0.074023982602     0.641184878373     1.007825032230
         H            5.449976914087    -4.429272017398    -0.410758121627     1.007825032230
         H            2.987402914087    -4.514762017398    -0.442535121627     1.007825032230
         H            2.905777914087    -0.338428017398     0.514560878373     1.007825032230
         H            1.004934914087    -1.404745017398     0.324826878373     1.007825032230
         H           -0.632268085913    -0.637850017398    -0.868664121627     1.007825032230
         H           -2.965209085913     0.101451982602    -0.831976121627     1.007825032230
         H           -4.224129085913    -3.913351017398     0.131984878373     1.007825032230
         H           -1.860521085913    -4.640951017398     0.112349878373     1.007825032230
         H           -5.630515085913    -1.296695017398    -1.341936121627     1.007825032230
         H           -5.844026085913    -2.164654017398     0.166766878373     1.007825032230
         H           -5.738852085913    -1.146523017398     2.387189878373     1.007825032230
         H           -5.704994085913     1.120109982602     2.305764878373     1.007825032230
         H           -8.186724085913     0.081430982602     2.635756878373     1.007825032230
         H           -8.172074085913    -1.252572017398     0.934782878373     1.007825032230
         H           -7.370448085913     2.829984982602     1.615439878373     1.007825032230
         H           -8.958341085913     2.353485982602     2.270234878373     1.007825032230
         H           -8.860156085913     3.141099982602     0.686446878373     1.007825032230
         H           -7.944340085913     2.014010982602    -1.262337121627     1.007825032230
         H           -8.033717085913    -0.148441017398    -1.302597121627     1.007825032230
         H           -5.555949085913     2.285870982602     0.021745878373     1.007825032230
         H           -5.471407085913     0.952264982602    -1.850394121627     1.007825032230
         H            7.587172914087    -2.039065017398     0.950214878373     1.007825032230
         H            7.527751914087    -1.683972017398    -0.777523121627     1.007825032230
         H            7.538838914087    -3.346153017398    -0.218318121627     1.007825032230

  Charge       = 0
  Multiplicity = 1
  Basis Set: 6-311++G**
    Blend: 6-311++G**
  Basis Set: (6-311++G** AUX)
    Blend: AUG-CC-PVTZ-JKFIT

    Orbital Energies [Eh]
    ---------------------

    Doubly Occupied:

       1A    -20.515998     2A    -15.601947     3A    -15.597770
       4A    -15.584542     5A    -15.572064     6A    -15.570650
       7A    -15.569431     8A    -15.566053     9A    -11.372378
      10A    -11.359832    11A    -11.338880    12A    -11.332592
      13A    -11.331523    14A    -11.317123    15A    -11.315143
      16A    -11.312538    17A    -11.299164    18A    -11.299130
      19A    -11.298158    20A    -11.290503    21A    -11.287734
      22A    -11.278324    23A    -11.275272    24A    -11.264025
      25A    -11.261212    26A    -11.253141    27A    -11.251106
      28A    -11.249387    29A    -11.245590    30A    -11.245135
      31A    -11.242752    32A    -11.239160    33A    -11.237619
      34A    -11.235563    35A    -11.232349    36A    -11.229047
      37A    -11.222721    38A     -1.381267    39A     -1.343738
      40A     -1.276271    41A     -1.252533    42A     -1.247634
      43A     -1.238973    44A     -1.208058    45A     -1.206921
      46A     -1.154503    47A     -1.137264    48A     -1.114055
      49A     -1.073287    50A     -1.055411    51A     -1.046210
      52A     -1.035241    53A     -1.014652    54A     -1.005647
      55A     -0.996485    56A     -0.977082    57A     -0.947152
      58A     -0.930384    59A     -0.924818    60A     -0.898931
      61A     -0.870730    62A     -0.861335    63A     -0.856124
      64A     -0.837872    65A     -0.832678    66A     -0.826478
      67A     -0.824414    68A     -0.802276    69A     -0.774438
      70A     -0.752138    71A     -0.735823    72A     -0.727275
      73A     -0.719621    74A     -0.703168    75A     -0.691503
      76A     -0.680620    77A     -0.667106    78A     -0.663674
      79A     -0.655524    80A     -0.650034    81A     -0.648498
      82A     -0.643706    83A     -0.634909    84A     -0.626606
      85A     -0.624346    86A     -0.618816    87A     -0.611146
      88A     -0.609000    89A     -0.605055    90A     -0.600772
      91A     -0.596480    92A     -0.593266    93A     -0.590690
      94A     -0.587068    95A     -0.583155    96A     -0.578271
      97A     -0.577653    98A     -0.570607    99A     -0.563746
     100A     -0.559428   101A     -0.546124   102A     -0.542508
     103A     -0.539276   104A     -0.530422   105A     -0.523877
     106A     -0.521036   107A     -0.512873   108A     -0.511351
     109A     -0.506609   110A     -0.500425   111A     -0.494441
     112A     -0.487139   113A     -0.482343   114A     -0.475077
     115A     -0.451856   116A     -0.449909   117A     -0.440422
     118A     -0.436119   119A     -0.423500   120A     -0.422370
     121A     -0.412324   122A     -0.409234   123A     -0.398288
     124A     -0.391028   125A     -0.371476   126A     -0.344324
     127A     -0.338090   128A     -0.331463   129A     -0.324357
     130A     -0.311835   131A     -0.288303

  @DF-RHF Final Energy: -1572.30047449085873

   => Energetics <=

    Nuclear Repulsion Energy =           3642.7705285095780710
    One-Electron Energy =               -9384.0689720138361736
    Two-Electron Energy =                4168.9979690133995973
    Total Energy =                      -1572.3004744908585053

  Dipole Moment: [D]
     X:    -0.7017      Y:     7.8750      Z:     1.0785     Total:     7.9794

  Basis Set: (6-311++G** AUX)
    Blend: AUG-CC-PVTZ-RI
	 Reference Energy          =   -1572.3004744908587327 [Eh]
	 Singles Energy            =      -0.0000000000000000 [Eh]
	 Same-Spin Energy          =      -1.4685170923708675 [Eh]
	 Opposite-Spin Energy      =      -4.0485636290387426 [Eh]
	 Correlation Energy        =      -5.5170807214096103 [Eh]
	 Total Energy              =   -1577.8175552122684167 [Eh]

	 ================> DF-SCS-MP2 Energies <==================
	-----------------------------------------------------------
	 SCS Same-Spin Scale       =       0.3333333333333333 [-]
	 SCS Opposite-Spin Scale   =       1.2000000000000000 [-]
	 SCS Same-Spin Energy      =      -0.4895056974569558 [Eh]
	 SCS Opposite-Spin Energy  =      -4.8582763548464909 [Eh]
	 SCS Correlation Energy    =      -5.3477820523034465 [Eh]
	 SCS Total Energy          =   -1577.6482565431622334 [Eh]
	-----------------------------------------------------------

*** Psi4 exiting successfully. Buy a developer a beer!
