                               Psi4 1.3.2 release

  ==> Input File <==

--------------------------------------------------------------------------
molecule {
0 1
 C    0.571070    4.284753   -2.493937
 C    1.769495    4.238511   -1.768088
 C    2.255858    3.004477   -1.294275
 C    1.469189    1.867843   -1.610054
 N    0.319232    1.892031   -2.296225
 C   -0.113771    3.086414   -2.727687
 C    3.513266    2.857564   -0.474619
 C    4.372793    3.891236   -0.070362
 C    5.454115    3.501448    0.731191
 N    5.693776    2.251563    1.123192
 C    4.812766    1.328456    0.687946
 N    3.759724    1.595002   -0.085493
 N    5.021600    0.021767    1.081115
 C    4.321513   -1.179800    0.727965
 C    5.054561   -2.375239    0.471085
 C    4.312576   -3.513170    0.112715
 C    2.919540   -3.522053   -0.030476
 C    2.217914   -2.338290    0.223385
 C    2.924933   -1.194687    0.628595
 N    0.807669   -2.150690    0.078851
 C   -0.164964   -2.962122   -0.456528
 C   -1.527254   -2.342805   -0.701153
 C   -1.693443   -1.009426   -1.113002
 C   -2.972391   -0.480147   -1.293857
 C   -4.125554   -1.260644   -1.089517
 C   -3.943558   -2.600389   -0.695366
 C   -2.667843   -3.140166   -0.514108
 C   -5.523554   -0.656451   -1.229554
 N   -6.095271    0.076480   -0.084851
 C   -5.586983    1.431269    0.227623
 C   -4.457474    1.466538    1.289425
 N   -4.796402    0.774962    2.555268
 C   -5.597404    1.529444    3.526497
 C   -5.260539   -0.599172    2.243777
 C   -6.373550   -0.668593    1.165100
 O    0.030798   -4.139436   -0.714049
 C    6.569059   -2.451353    0.549886
 H    0.174818    5.225049   -2.865737
 H    2.295932    5.170699   -1.578462
 H    1.795591    0.882272   -1.289760
 H   -1.048798    3.079323   -3.286091
 H    4.232053    4.932998   -0.331363
 H    6.167676    4.244290    1.086982
 H    5.861924   -0.069078    1.633343
 H    4.837441   -4.443133   -0.102564
 H    2.388969   -4.410700   -0.350345
 H    2.402089   -0.267591    0.819177
 H    0.482410   -1.234639    0.354354
 H   -0.818278   -0.390167   -1.298875
 H   -3.063909    0.561239   -1.601593
 H   -4.809345   -3.237117   -0.514318
 H   -2.535584   -4.175275   -0.208829
 H   -5.522920    0.033198   -2.086420
 H   -6.230288   -1.463538   -1.471478
 H   -5.329493    1.952233   -0.659592
 H   -6.792277    2.227393    0.879218
 H   -4.189702    2.910101    1.594740
 H   -3.494353    1.011936    0.887659
 H   -6.602588    1.728269    3.138277
 H   -5.111602    2.484153    3.757682
 H   -5.686745    0.963914    4.461220
 H   -5.568625   -1.109820    3.182744
 H   -4.073917   -1.340164    1.703236
 H   -7.637384    0.001787    1.827713
 H   -6.658536   -1.750369    0.929713
 H    6.915966   -2.413978    1.592350
 H    7.046167   -1.619011    0.013697
 H    6.972269   -3.374944    0.112093
}
memory 20GB
set_num_threads(6)
psi4_io.set_default_path("/scratch/bdw2292")
set freeze_core True
E, wfn = energy('mp2/6-311++G**',return_wfn=True)
oeprop(wfn,"WIBERG_LOWDIN_INDICES")
clean()
--------------------------------------------------------------------------

    Molecular point group: c1

    Geometry (in Angstrom), charge = 0, multiplicity = 1:

       Center              X                  Y                   Z               Mass
    ------------   -----------------  -----------------  -----------------  -----------------
         C            0.443445150514     4.275147730324    -2.438130648283    12.000000000000
         C            1.641870150514     4.228905730324    -1.712281648283    12.000000000000
         C            2.128233150514     2.994871730324    -1.238468648283    12.000000000000
         C            1.341564150514     1.858237730324    -1.554247648283    12.000000000000
         N            0.191607150514     1.882425730324    -2.240418648283    14.003074004430
         C           -0.241395849486     3.076808730324    -2.671880648283    12.000000000000
         C            3.385641150514     2.847958730324    -0.418812648283    12.000000000000
         C            4.245168150514     3.881630730324    -0.014555648283    12.000000000000
         C            5.326490150514     3.491842730324     0.786997351717    12.000000000000
         N            5.566151150514     2.241957730324     1.178998351717    14.003074004430
         C            4.685141150514     1.318850730324     0.743752351717    12.000000000000
         N            3.632099150514     1.585396730324    -0.029686648283    14.003074004430
         N            4.893975150514     0.012161730324     1.136921351717    14.003074004430
         C            4.193888150514    -1.189405269676     0.783771351717    12.000000000000
         C            4.926936150514    -2.384844269676     0.526891351717    12.000000000000
         C            4.184951150514    -3.522775269676     0.168521351717    12.000000000000
         C            2.791915150514    -3.531658269676     0.025330351717    12.000000000000
         C            2.090289150514    -2.347895269676     0.279191351717    12.000000000000
         C            2.797308150514    -1.204292269676     0.684401351717    12.000000000000
         N            0.680044150514    -2.160295269676     0.134657351717    14.003074004430
         C           -0.292588849486    -2.971727269676    -0.400721648283    12.000000000000
         C           -1.654878849486    -2.352410269676    -0.645346648283    12.000000000000
         C           -1.821067849486    -1.019031269676    -1.057195648283    12.000000000000
         C           -3.100015849486    -0.489752269676    -1.238050648283    12.000000000000
         C           -4.253178849486    -1.270249269676    -1.033710648283    12.000000000000
         C           -4.071182849486    -2.609994269676    -0.639559648283    12.000000000000
         C           -2.795467849486    -3.149771269676    -0.458301648283    12.000000000000
         C           -5.651178849486    -0.666056269676    -1.173747648283    12.000000000000
         N           -6.222895849486     0.066874730324    -0.029044648283    14.003074004430
         C           -5.714607849486     1.421663730324     0.283429351717    12.000000000000
         C           -4.585098849486     1.456932730324     1.345231351717    12.000000000000
         N           -4.924026849486     0.765356730324     2.611074351717    14.003074004430
         C           -5.725028849486     1.519838730324     3.582303351717    12.000000000000
         C           -5.388163849486    -0.608777269676     2.299583351717    12.000000000000
         C           -6.501174849486    -0.678198269676     1.220906351717    12.000000000000
         O           -0.096826849486    -4.149041269676    -0.658242648283    15.994914619570
         C            6.441434150514    -2.460958269676     0.605692351717    12.000000000000
         H            0.047193150514     5.215443730324    -2.809930648283     1.007825032230
         H            2.168307150514     5.161093730324    -1.522655648283     1.007825032230
         H            1.667966150514     0.872666730324    -1.233953648283     1.007825032230
         H           -1.176422849486     3.069717730324    -3.230284648283     1.007825032230
         H            4.104428150514     4.923392730324    -0.275556648283     1.007825032230
         H            6.040051150514     4.234684730324     1.142788351717     1.007825032230
         H            5.734299150514    -0.078683269676     1.689149351717     1.007825032230
         H            4.709816150514    -4.452738269676    -0.046757648283     1.007825032230
         H            2.261344150514    -4.420305269676    -0.294538648283     1.007825032230
         H            2.274464150514    -0.277196269676     0.874983351717     1.007825032230
         H            0.354785150514    -1.244244269676     0.410160351717     1.007825032230
         H           -0.945902849486    -0.399772269676    -1.243068648283     1.007825032230
         H           -3.191533849486     0.551633730324    -1.545786648283     1.007825032230
         H           -4.936969849486    -3.246722269676    -0.458511648283     1.007825032230
         H           -2.663208849486    -4.184880269676    -0.153022648283     1.007825032230
         H           -5.650544849486     0.023592730324    -2.030613648283     1.007825032230
         H           -6.357912849486    -1.473143269676    -1.415671648283     1.007825032230
         H           -5.457117849486     1.942627730324    -0.603785648283     1.007825032230
         H           -6.919901849486     2.217787730324     0.935024351717     1.007825032230
         H           -4.317326849486     2.900495730324     1.650546351717     1.007825032230
         H           -3.621977849486     1.002330730324     0.943465351717     1.007825032230
         H           -6.730212849486     1.718663730324     3.194083351717     1.007825032230
         H           -5.239226849486     2.474547730324     3.813488351717     1.007825032230
         H           -5.814369849486     0.954308730324     4.517026351717     1.007825032230
         H           -5.696249849486    -1.119425269676     3.238550351717     1.007825032230
         H           -4.201541849486    -1.349769269676     1.759042351717     1.007825032230
         H           -7.765008849486    -0.007818269676     1.883519351717     1.007825032230
         H           -6.786160849486    -1.759974269676     0.985519351717     1.007825032230
         H            6.788341150514    -2.423583269676     1.648156351717     1.007825032230
         H            6.918542150514    -1.628616269676     0.069503351717     1.007825032230
         H            6.844644150514    -3.384549269676     0.167899351717     1.007825032230

  Charge       = 0
  Multiplicity = 1
  Basis Set: 6-311++G**
    Blend: 6-311++G**
  Basis Set: (6-311++G** AUX)
    Blend: AUG-CC-PVTZ-JKFIT

    Orbital Energies [Eh]
    ---------------------

    Doubly Occupied:

       1A    -20.522742     2A    -15.602999     3A    -15.599196
       4A    -15.585055     5A    -15.574474     6A    -15.572307
       7A    -15.564184     8A    -15.555841     9A    -11.371625
      10A    -11.365167    11A    -11.331499    12A    -11.315235
      13A    -11.312926    14A    -11.306029    15A    -11.303112
      16A    -11.301302    17A    -11.299770    18A    -11.297300
      19A    -11.296306    20A    -11.294126    21A    -11.287602
      22A    -11.282244    23A    -11.277797    24A    -11.263950
      25A    -11.259506    26A    -11.258452    27A    -11.254222
      28A    -11.251953    29A    -11.250351    30A    -11.248248
      31A    -11.248001    32A    -11.247738    33A    -11.244638
      34A    -11.240142    35A    -11.236466    36A    -11.234055
      37A    -11.228940    38A     -1.388062    39A     -1.343948
      40A     -1.276469    41A     -1.252921    42A     -1.248371
      43A     -1.241841    44A     -1.208338    45A     -1.202069
      46A     -1.163806    47A     -1.140160    48A     -1.113671
      49A     -1.073465    50A     -1.061184    51A     -1.046650
      52A     -1.038782    53A     -1.025894    54A     -1.008144
      55A     -1.002883    56A     -0.979961    57A     -0.947110
      58A     -0.929331    59A     -0.924721    60A     -0.899294
      61A     -0.870634    62A     -0.868076    63A     -0.856177
      64A     -0.849797    65A     -0.838924    66A     -0.836757
      67A     -0.826517    68A     -0.807825    69A     -0.779083
      70A     -0.753835    71A     -0.739912    72A     -0.730953
      73A     -0.721025    74A     -0.713919    75A     -0.698624
      76A     -0.681487    77A     -0.679712    78A     -0.666355
      79A     -0.660697    80A     -0.655612    81A     -0.652450
      82A     -0.650043    83A     -0.640892    84A     -0.630804
      85A     -0.628056    86A     -0.619652    87A     -0.611662
      88A     -0.610540    89A     -0.608064    90A     -0.603646
      91A     -0.601044    92A     -0.598363    93A     -0.597607
      94A     -0.591024    95A     -0.588103    96A     -0.581839
      97A     -0.580341    98A     -0.576543    99A     -0.567822
     100A     -0.559184   101A     -0.547344   102A     -0.542459
     103A     -0.542158   104A     -0.532464   105A     -0.528085
     106A     -0.521494   107A     -0.512713   108A     -0.511807
     109A     -0.508721   110A     -0.501716   111A     -0.497648
     112A     -0.494043   113A     -0.488439   114A     -0.478812
     115A     -0.457489   116A     -0.450235   117A     -0.440992
     118A     -0.429927   119A     -0.427864   120A     -0.420907
     121A     -0.412679   122A     -0.398205   123A     -0.396149
     124A     -0.381201   125A     -0.369136   126A     -0.347785
     127A     -0.344623   128A     -0.343965   129A     -0.315945
     130A     -0.312242   131A     -0.295498

  @DF-RHF Final Energy: -1572.33274051380681

   => Energetics <=

    Nuclear Repulsion Energy =           3759.4945881614726204
    One-Electron Energy =               -9617.0768295352900168
    Two-Electron Energy =                4285.2495008600099027
    Total Energy =                      -1572.3327405138070390

  Dipole Moment: [D]
     X:     1.1458      Y:     5.8093      Z:    -0.3129     Total:     5.9294

  Basis Set: (6-311++G** AUX)
    Blend: AUG-CC-PVTZ-RI
	 Reference Energy          =   -1572.3327405138068116 [Eh]
	 Singles Energy            =      -0.0000000000000000 [Eh]
	 Same-Spin Energy          =      -1.4710796681514597 [Eh]
	 Opposite-Spin Energy      =      -4.0478632403651051 [Eh]
	 Correlation Energy        =      -5.5189429085165651 [Eh]
	 Total Energy              =   -1577.8516834223232763 [Eh]

	 ================> DF-SCS-MP2 Energies <==================
	-----------------------------------------------------------
	 SCS Same-Spin Scale       =       0.3333333333333333 [-]
	 SCS Opposite-Spin Scale   =       1.2000000000000000 [-]
	 SCS Same-Spin Energy      =      -0.4903598893838199 [Eh]
	 SCS Opposite-Spin Energy  =      -4.8574358884381263 [Eh]
	 SCS Correlation Energy    =      -5.3477957778219460 [Eh]
	 SCS Total Energy          =   -1577.6805362916288686 [Eh]
	-----------------------------------------------------------

*** Psi4 exiting successfully. Buy a developer a beer!
