 Gaussian 09, Revision A.02,
 Gaussian 09:  EM64L-G09RevA.02 11-Jun-2009

 --------------------------------------------------
 #P opt=(,maxcycle=400) wB97XD/6-31G* MaxDisk=100GB
 --------------------------------------------------

 -----------------------------------------------------------------
 MOLECULE0 Rotatable Bond Optimization on g2-node38.bme.utexas.edu
 -----------------------------------------------------------------
 Symbolic Z-matrix:
 Charge =  0 Multiplicity = 1

 SCF Done:  E(RwB97XD) =  -1581.50833133     A.U. after   16 cycles
 SCF Done:  E(RwB97XD) =  -1581.56817088     A.U. after   13 cycles
 SCF Done:  E(RwB97XD) =  -1581.66714879     A.U. after   14 cycles
 SCF Done:  E(RwB97XD) =  -1581.71896921     A.U. after   14 cycles
 SCF Done:  E(RwB97XD) =  -1581.74261695     A.U. after   14 cycles
 SCF Done:  E(RwB97XD) =  -1581.74928026     A.U. after   14 cycles
 SCF Done:  E(RwB97XD) =  -1581.75383351     A.U. after   14 cycles
 SCF Done:  E(RwB97XD) =  -1581.75549166     A.U. after   14 cycles
 SCF Done:  E(RwB97XD) =  -1581.75622535     A.U. after   14 cycles
 SCF Done:  E(RwB97XD) =  -1581.75626249     A.U. after   14 cycles
 SCF Done:  E(RwB97XD) =  -1581.75753667     A.U. after   13 cycles
 SCF Done:  E(RwB97XD) =  -1581.75761184     A.U. after   13 cycles
 SCF Done:  E(RwB97XD) =  -1581.75759138     A.U. after   13 cycles
 SCF Done:  E(RwB97XD) =  -1581.75765004     A.U. after   13 cycles
 SCF Done:  E(RwB97XD) =  -1581.75766029     A.U. after   12 cycles
 SCF Done:  E(RwB97XD) =  -1581.75766140     A.U. after   12 cycles
 SCF Done:  E(RwB97XD) =  -1581.75766325     A.U. after   10 cycles
 SCF Done:  E(RwB97XD) =  -1581.75766355     A.U. after    8 cycles
 SCF Done:  E(RwB97XD) =  -1581.75766355     A.U. after    7 cycles
 SCF Done:  E(RwB97XD) =  -1581.75766359     A.U. after    6 cycles
 Optimization completed.
    -- Stationary point found.

                         Standard orientation:
 ---------------------------------------------------------------------
 Center     Atomic      Atomic             Coordinates (Angstroms)
 Number     Number       Type             X           Y           Z
 ---------------------------------------------------------------------
      1          6           0       -8.418576   -3.557235    0.179903
      2          6           0       -7.071333   -3.228160    0.118267
      3          6           0       -6.707486   -1.904764   -0.131488
      4          6           0       -7.737879   -0.972783   -0.302049
      5          7           0       -9.033699   -1.274793   -0.249480
      6          6           0       -9.357148   -2.548468   -0.011282
      7          6           0       -5.291207   -1.471847   -0.215995
      8          6           0       -4.256815   -2.360492   -0.538904
      9          6           0       -2.981530   -1.826567   -0.584134
     10          7           0       -2.708354   -0.543780   -0.346269
     11          6           0       -3.765399    0.225011   -0.059426
     12          7           0       -5.045270   -0.185510    0.017231
     13          7           0       -3.610982    1.559584    0.193706
     14          6           0       -2.481189    2.391709    0.239865
     15          6           0       -2.703409    3.754628    0.529220
     16          6           0       -1.596357    4.592693    0.585740
     17          6           0       -0.295540    4.149213    0.370511
     18          6           0       -0.099188    2.800674    0.083104
     19          6           0       -1.187799    1.926505    0.018386
     20          7           0        1.165286    2.235557   -0.174409
     21          6           0        2.403824    2.811266   -0.049667
     22          6           0        3.542058    1.909851   -0.437727
     23          6           0        3.437021    0.934223   -1.432070
     24          6           0        4.529378    0.133854   -1.745153
     25          6           0        5.740637    0.273138   -1.066068
     26          6           0        5.847874    1.280061   -0.103508
     27          6           0        4.766395    2.094043    0.205561
     28          6           0        6.905114   -0.666591   -1.343620
     29          7           0        6.967213   -1.911623   -0.596618
     30          6           0        6.003132   -2.952862   -0.931273
     31          6           0        4.733905   -2.931763   -0.062055
     32          7           0        5.020557   -2.915393    1.369442
     33          6           0        5.463733   -4.194367    1.895261
     34          6           0        5.917806   -1.805416    1.680770
     35          6           0        7.205345   -1.817063    0.839164
     36          8           0        2.598795    3.946219    0.353481
     37          6           0       -4.090727    4.294082    0.770722
     38          1           0       -8.737519   -4.574629    0.379916
     39          1           0       -6.316129   -3.990286    0.286737
     40          1           0       -7.487222    0.066609   -0.493444
     41          1           0      -10.421271   -2.769707    0.033191
     42          1           0       -4.435284   -3.403202   -0.768221
     43          1           0       -2.126597   -2.453509   -0.829227
     44          1           0       -4.496855    1.998497    0.394947
     45          1           0       -1.754516    5.644974    0.807669
     46          1           0        0.544611    4.825474    0.430276
     47          1           0       -1.040343    0.877309   -0.202497
     48          1           0        1.153654    1.245761   -0.370138
     49          1           0        2.514468    0.818615   -1.995399
     50          1           0        4.438580   -0.614334   -2.529333
     51          1           0        6.793511    1.424525    0.414034
     52          1           0        4.851235    2.881894    0.946870
     53          1           0        6.904524   -0.927407   -2.409268
     54          1           0        7.842423   -0.128484   -1.153934
     55          1           0        5.741040   -2.864502   -1.991855
     56          1           0        6.502358   -3.925958   -0.810312
     57          1           0        4.110676   -3.805679   -0.288505
     58          1           0        4.144980   -2.035821   -0.290926
     59          1           0        6.412958   -4.577752    1.480905
     60          1           0        4.691128   -4.947088    1.703252
     61          1           0        5.586537   -4.109516    2.980385
     62          1           0        6.165871   -1.841575    2.748420
     63          1           0        5.369167   -0.873449    1.501316
     64          1           0        7.822715   -2.677398    1.137728
     65          1           0        7.798749   -0.918275    1.041772
     66          1           0       -4.571365    3.827765    1.641306
     67          1           0       -4.750094    4.144574   -0.094628
     68          1           0       -4.053447    5.369094    0.963558
 ---------------------------------------------------------------------

 The electronic state is 1-A.
 Alpha  occ. eigenvalues --  -19.23835 -14.49108 -14.48930 -14.45876 -14.45799
 Alpha  occ. eigenvalues --  -14.45514 -14.43982 -14.43431 -10.41655 -10.40643
 Alpha  occ. eigenvalues --  -10.37349 -10.36104 -10.34702 -10.34393 -10.34203
 Alpha  occ. eigenvalues --  -10.34118 -10.33393 -10.32874 -10.32830 -10.32040
 Alpha  occ. eigenvalues --  -10.31769 -10.31686 -10.31686 -10.31549 -10.31527
 Alpha  occ. eigenvalues --  -10.31433 -10.31087 -10.31054 -10.30956 -10.30905
 Alpha  occ. eigenvalues --  -10.30882 -10.30836 -10.30326 -10.30025 -10.29494
 Alpha  occ. eigenvalues --  -10.28971 -10.28260  -1.13995  -1.12110  -1.05379
 Alpha  occ. eigenvalues --   -1.04482  -1.04201  -1.03830  -1.00483  -0.99923
 Alpha  occ. eigenvalues --   -0.96784  -0.94847  -0.92400  -0.89396  -0.88370
 Alpha  occ. eigenvalues --   -0.86927  -0.86376  -0.85824  -0.85248  -0.83768
 Alpha  occ. eigenvalues --   -0.82273  -0.79768  -0.78195  -0.77522  -0.76440
 Alpha  occ. eigenvalues --   -0.73617  -0.73258  -0.73109  -0.72545  -0.71281
 Alpha  occ. eigenvalues --   -0.70665  -0.69532  -0.68363  -0.66307  -0.65184
 Alpha  occ. eigenvalues --   -0.64057  -0.63280  -0.62733  -0.61368  -0.60205
 Alpha  occ. eigenvalues --   -0.58497  -0.58322  -0.57254  -0.56998  -0.55839
 Alpha  occ. eigenvalues --   -0.55619  -0.55451  -0.55281  -0.54768  -0.54398
 Alpha  occ. eigenvalues --   -0.54213  -0.53715  -0.53209  -0.53007  -0.52480
 Alpha  occ. eigenvalues --   -0.51674  -0.51503  -0.51430  -0.50965  -0.50670
 Alpha  occ. eigenvalues --   -0.50442  -0.49913  -0.49794  -0.49514  -0.48778
 Alpha  occ. eigenvalues --   -0.47361  -0.47084  -0.46919  -0.46631  -0.46104
 Alpha  occ. eigenvalues --   -0.45611  -0.45518  -0.45164  -0.44501  -0.43957
 Alpha  occ. eigenvalues --   -0.43308  -0.43119  -0.42791  -0.41907  -0.41524
 Alpha  occ. eigenvalues --   -0.41314  -0.41200  -0.39923  -0.38174  -0.37068
 Alpha  occ. eigenvalues --   -0.35196  -0.34831  -0.34012  -0.33665  -0.33470
 Alpha  occ. eigenvalues --   -0.32921  -0.32451  -0.31178  -0.29301  -0.26953
 Alpha  occ. eigenvalues --   -0.25326
 Alpha virt. eigenvalues --    0.00193   0.02800   0.03623   0.04854   0.05691
 Alpha virt. eigenvalues --    0.07772   0.08203   0.10865   0.14325   0.15255
 Alpha virt. eigenvalues --    0.16234   0.16759   0.17017   0.17538   0.18739

 Mulliken atomic charges:
              1
     1  C   -0.195845
     2  C   -0.158412
     3  C    0.036976
     4  C    0.011443
     5  N   -0.421688
     6  C    0.025482
     7  C    0.286570
     8  C   -0.252055
     9  C    0.054487
    10  N   -0.496301
    11  C    0.725548
    12  N   -0.571493
    13  N   -0.811906
    14  C    0.302186
    15  C    0.115197
    16  C   -0.238807
    17  C   -0.192978
    18  C    0.357765
    19  C   -0.279018
    20  N   -0.765643
    21  C    0.597288
    22  C    0.017423
    23  C   -0.209426
    24  C   -0.219323
    25  C    0.158489
    26  C   -0.222587
    27  C   -0.175778
    28  C   -0.264098
    29  N   -0.380742
    30  C   -0.184713
    31  C   -0.180780
    32  N   -0.385284
    33  C   -0.350127
    34  C   -0.182725
    35  C   -0.186502
    36  O   -0.512525
    37  C   -0.612590
    38  H    0.182096
    39  H    0.182372
    40  H    0.197704
    41  H    0.181236
    42  H    0.180063
    43  H    0.184717
    44  H    0.370049
    45  H    0.160839
    46  H    0.216018
    47  H    0.204904
    48  H    0.358763
    49  H    0.174252
    50  H    0.164688
    51  H    0.167253
    52  H    0.201009
    53  H    0.170626
    54  H    0.171673
    55  H    0.151194
    56  H    0.160961
    57  H    0.151112
    58  H    0.163731
    59  H    0.136030
    60  H    0.166219
    61  H    0.168407
    62  H    0.154765
    63  H    0.170056
    64  H    0.161056
    65  H    0.154275
    66  H    0.182761
    67  H    0.182031
    68  H    0.191631
 Sum of Mulliken atomic charges =   0.00000

 Dipole moment (field-independent basis, Debye):
    X=             -0.1698    Y=             -5.6408    Z=             -0.7497  Tot=              5.6930
 Quadrupole moment (field-independent basis, Debye-Ang):
   XX=           -210.4000   YY=           -203.7451   ZZ=           -215.8460
   XY=              5.3102   XZ=             -2.2307   YZ=              3.0040

 Normal termination of Gaussian 09 at Thu Feb 27 16:11:41 2020.
