                               Psi4 1.3.2 release

  ==> Input File <==

--------------------------------------------------------------------------
molecule {
0 1
 C   -7.973244   -3.603654   -1.331869
 C   -6.788528   -3.279063   -0.658878
 C   -6.426015   -1.929012   -0.479371
 C   -7.321883   -0.971864   -1.016238
 N   -8.459073   -1.265047   -1.661323
 C   -8.771730   -2.560575   -1.811856
 C   -5.171656   -1.488016    0.232398
 C   -4.215655   -2.359487    0.784214
 C   -3.114366   -1.755070    1.400673
 N   -2.934801   -0.439940    1.485297
 C   -3.909243    0.316567    0.943616
 N   -4.994260   -0.155674    0.330720
 N   -3.742950    1.674322    1.047218
 C   -2.627158    2.550584    0.813276
 C   -2.807400    3.958501    0.974143
 C   -1.700163    4.783065    0.721458
 C   -0.444958    4.303957    0.333596
 C   -0.271030    2.921649    0.200139
 C   -1.365606    2.070571    0.433673
 N    0.954990    2.281515   -0.179934
 C    2.225234    2.785225   -0.350224
 C    3.312061    1.821807   -0.788341
 C    3.086837    0.711332   -1.618827
 C    4.136927   -0.149342   -1.948988
 C    5.448334    0.079660   -1.490982
 C    5.668027    1.224333   -0.700618
 C    4.624575    2.089479   -0.364643
 C    6.588543   -0.889265   -1.811418
 N    6.829990   -2.042476   -0.927612
 C    5.877152   -3.175840   -0.941629
 C    4.764385   -3.098719    0.135683
 N    5.271013   -2.896641    1.514382
 C    5.742419   -4.091172    2.224774
 C    6.180722   -1.725166    1.519313
 C    7.305286   -1.792432    0.453079
 O    2.501892    3.957050   -0.147413
 C   -4.124000    4.591543    1.393172
 H   -8.271483   -4.637072   -1.482292
 H   -6.169959   -4.090732   -0.284361
 H   -7.106476    0.088672   -0.920198
 H   -9.702131   -2.759565   -2.341475
 H   -4.282572   -3.439855    0.758363
 H   -2.314322   -2.340266    1.853071
 H   -4.616720    2.100997    1.315541
 H   -1.807459    5.862073    0.824325
 H    0.384071    4.977746    0.157587
 H   -1.245511    1.001305    0.334410
 H    0.891411    1.274467   -0.226452
 H    2.086473    0.524551   -2.001263
 H    3.924976   -1.020374   -2.568801
 H    6.667833    1.438771   -0.324607
 H    4.809941    2.970541    0.244925
 H    6.426856   -1.291125   -2.821684
 H    7.526247   -0.316111   -1.844637
 H    5.416974   -3.312944   -2.016100
 H    6.664832   -4.399044   -0.671843
 H    4.032191   -4.214988    0.106122
 H    3.956833   -2.098313   -0.129041
 H    6.631801   -4.509803    1.740576
 H    4.957341   -4.855703    2.243388
 H    5.990318   -3.840606    3.262662
 H    6.702152   -1.595749    2.715786
 H    5.383448   -0.587242    1.286834
 H    8.192567   -2.918472    0.814959
 H    7.971645   -0.824344    0.488109
 H   -4.492370    4.210227    2.356294
 H   -4.903487    4.402709    0.649743
 H   -4.053358    5.676897    1.503134
}
memory 20GB
set_num_threads(6)
psi4_io.set_default_path("/scratch/bdw2292")
set freeze_core True
E, wfn = energy('mp2/6-311++G**',return_wfn=True)
oeprop(wfn,"WIBERG_LOWDIN_INDICES")
clean()
--------------------------------------------------------------------------

    Molecular point group: c1

    Geometry (in Angstrom), charge = 0, multiplicity = 1:

       Center              X                  Y                   Z               Mass
    ------------   -----------------  -----------------  -----------------  -----------------
         C           -7.884125041198    -3.645975811494    -1.316104137747    12.000000000000
         C           -6.699409041198    -3.321384811494    -0.643113137747    12.000000000000
         C           -6.336896041198    -1.971333811494    -0.463606137747    12.000000000000
         C           -7.232764041198    -1.014185811494    -1.000473137747    12.000000000000
         N           -8.369954041198    -1.307368811494    -1.645558137747    14.003074004430
         C           -8.682611041198    -2.602896811494    -1.796091137747    12.000000000000
         C           -5.082537041198    -1.530337811494     0.248162862253    12.000000000000
         C           -4.126536041198    -2.401808811494     0.799978862253    12.000000000000
         C           -3.025247041198    -1.797391811494     1.416437862253    12.000000000000
         N           -2.845682041198    -0.482261811494     1.501061862253    14.003074004430
         C           -3.820124041198     0.274245188506     0.959380862253    12.000000000000
         N           -4.905141041198    -0.197995811494     0.346484862253    14.003074004430
         N           -3.653831041198     1.632000188506     1.062982862253    14.003074004430
         C           -2.538039041198     2.508262188506     0.829040862253    12.000000000000
         C           -2.718281041198     3.916179188506     0.989907862253    12.000000000000
         C           -1.611044041198     4.740743188506     0.737222862253    12.000000000000
         C           -0.355839041198     4.261635188506     0.349360862253    12.000000000000
         C           -0.181911041198     2.879327188506     0.215903862253    12.000000000000
         C           -1.276487041198     2.028249188506     0.449437862253    12.000000000000
         N            1.044108958802     2.239193188506    -0.164169137747    14.003074004430
         C            2.314352958802     2.742903188506    -0.334459137747    12.000000000000
         C            3.401179958802     1.779485188506    -0.772576137747    12.000000000000
         C            3.175955958802     0.669010188506    -1.603062137747    12.000000000000
         C            4.226045958802    -0.191663811494    -1.933223137747    12.000000000000
         C            5.537452958802     0.037338188506    -1.475217137747    12.000000000000
         C            5.757145958802     1.182011188506    -0.684853137747    12.000000000000
         C            4.713693958802     2.047157188506    -0.348878137747    12.000000000000
         C            6.677661958802    -0.931586811494    -1.795653137747    12.000000000000
         N            6.919108958802    -2.084797811494    -0.911847137747    14.003074004430
         C            5.966270958802    -3.218161811494    -0.925864137747    12.000000000000
         C            4.853503958802    -3.141040811494     0.151447862253    12.000000000000
         N            5.360131958802    -2.938962811494     1.530146862253    14.003074004430
         C            5.831537958802    -4.133493811494     2.240538862253    12.000000000000
         C            6.269840958802    -1.767487811494     1.535077862253    12.000000000000
         C            7.394404958802    -1.834753811494     0.468843862253    12.000000000000
         O            2.591010958802     3.914728188506    -0.131648137747    15.994914619570
         C           -4.034881041198     4.549221188506     1.408936862253    12.000000000000
         H           -8.182364041198    -4.679393811494    -1.466527137747     1.007825032230
         H           -6.080840041198    -4.133053811494    -0.268596137747     1.007825032230
         H           -7.017357041198     0.046350188506    -0.904433137747     1.007825032230
         H           -9.613012041198    -2.801886811494    -2.325710137747     1.007825032230
         H           -4.193453041198    -3.482176811494     0.774127862253     1.007825032230
         H           -2.225203041198    -2.382587811494     1.868835862253     1.007825032230
         H           -4.527601041198     2.058675188506     1.331305862253     1.007825032230
         H           -1.718340041198     5.819751188506     0.840089862253     1.007825032230
         H            0.473189958802     4.935424188506     0.173351862253     1.007825032230
         H           -1.156392041198     0.958983188506     0.350174862253     1.007825032230
         H            0.980529958802     1.232145188506    -0.210687137747     1.007825032230
         H            2.175591958802     0.482229188506    -1.985498137747     1.007825032230
         H            4.014094958802    -1.062695811494    -2.553036137747     1.007825032230
         H            6.756951958802     1.396449188506    -0.308842137747     1.007825032230
         H            4.899059958802     2.928219188506     0.260689862253     1.007825032230
         H            6.515974958802    -1.333446811494    -2.805919137747     1.007825032230
         H            7.615365958802    -0.358432811494    -1.828872137747     1.007825032230
         H            5.506092958802    -3.355265811494    -2.000335137747     1.007825032230
         H            6.753950958802    -4.441365811494    -0.656078137747     1.007825032230
         H            4.121309958802    -4.257309811494     0.121886862253     1.007825032230
         H            4.045951958802    -2.140634811494    -0.113276137747     1.007825032230
         H            6.720919958802    -4.552124811494     1.756340862253     1.007825032230
         H            5.046459958802    -4.898024811494     2.259152862253     1.007825032230
         H            6.079436958802    -3.882927811494     3.278426862253     1.007825032230
         H            6.791270958802    -1.638070811494     2.731550862253     1.007825032230
         H            5.472566958802    -0.629563811494     1.302598862253     1.007825032230
         H            8.281685958802    -2.960793811494     0.830723862253     1.007825032230
         H            8.060763958802    -0.866665811494     0.503873862253     1.007825032230
         H           -4.403251041198     4.167905188506     2.372058862253     1.007825032230
         H           -4.814368041198     4.360387188506     0.665507862253     1.007825032230
         H           -3.964239041198     5.634575188506     1.518898862253     1.007825032230

  Charge       = 0
  Multiplicity = 1
  Basis Set: 6-311++G**
    Blend: 6-311++G**
  Basis Set: (6-311++G** AUX)
    Blend: AUG-CC-PVTZ-JKFIT

    Orbital Energies [Eh]
    ---------------------

    Doubly Occupied:

       1A    -20.524516     2A    -15.605188     3A    -15.589438
       4A    -15.577413     5A    -15.575277     6A    -15.572717
       7A    -15.571917     8A    -15.558567     9A    -11.368467
      10A    -11.368414    11A    -11.333184    12A    -11.313541
      13A    -11.313138    14A    -11.312531    15A    -11.310612
      16A    -11.308683    17A    -11.302219    18A    -11.293821
      19A    -11.293814    20A    -11.291751    21A    -11.283971
      22A    -11.282169    23A    -11.274232    24A    -11.264326
      25A    -11.263117    26A    -11.263042    27A    -11.259182
      28A    -11.256210    29A    -11.255080    30A    -11.254469
      31A    -11.251238    32A    -11.249126    33A    -11.243071
      34A    -11.237720    35A    -11.231962    36A    -11.231756
      37A    -11.220947    38A     -1.390184    39A     -1.345288
      40A     -1.269932    41A     -1.251588    42A     -1.248577
      43A     -1.240372    44A     -1.209540    45A     -1.203000
      46A     -1.168132    47A     -1.139310    48A     -1.110542
      49A     -1.072732    50A     -1.063205    51A     -1.043608
      52A     -1.037223    53A     -1.030789    54A     -1.005918
      55A     -0.995012    56A     -0.980406    57A     -0.946845
      58A     -0.930615    59A     -0.921373    60A     -0.901592
      61A     -0.868886    62A     -0.866214    63A     -0.855378
      64A     -0.848047    65A     -0.835329    66A     -0.828774
      67A     -0.823087    68A     -0.808231    69A     -0.778404
      70A     -0.752979    71A     -0.738629    72A     -0.733329
      73A     -0.717693    74A     -0.708090    75A     -0.701199
      76A     -0.679667    77A     -0.675875    78A     -0.666194
      79A     -0.662216    80A     -0.653242    81A     -0.651726
      82A     -0.646085    83A     -0.637939    84A     -0.636172
      85A     -0.623711    86A     -0.617950    87A     -0.609300
      88A     -0.608629    89A     -0.606521    90A     -0.602008
      91A     -0.599466    92A     -0.593050    93A     -0.588612
      94A     -0.585862    95A     -0.583366    96A     -0.581702
      97A     -0.579788    98A     -0.578018    99A     -0.567441
     100A     -0.551492   101A     -0.546466   102A     -0.538787
     103A     -0.534080   104A     -0.529862   105A     -0.528201
     106A     -0.523195   107A     -0.512558   108A     -0.510080
     109A     -0.509202   110A     -0.507615   111A     -0.506281
     112A     -0.500476   113A     -0.485896   114A     -0.476505
     115A     -0.457042   116A     -0.448345   117A     -0.439222
     118A     -0.434697   119A     -0.430995   120A     -0.423708
     121A     -0.413838   122A     -0.413412   123A     -0.396162
     124A     -0.386022   125A     -0.375201   126A     -0.352188
     127A     -0.348147   128A     -0.340356   129A     -0.318012
     130A     -0.314254   131A     -0.287594

  @DF-RHF Final Energy: -1572.35071919331381

   => Energetics <=

    Nuclear Repulsion Energy =           3540.2889641120086708
    One-Electron Energy =               -9178.7767409953248716
    Two-Electron Energy =                4066.1370576900017113
    Total Energy =                      -1572.3507191933140348

  Dipole Moment: [D]
     X:    -0.9644      Y:    -6.3303      Z:    -0.0739     Total:     6.4037

  Basis Set: (6-311++G** AUX)
    Blend: AUG-CC-PVTZ-RI
	 Reference Energy          =   -1572.3507191933138074 [Eh]
	 Singles Energy            =      -0.0000000000000000 [Eh]
	 Same-Spin Energy          =      -1.4689150033287046 [Eh]
	 Opposite-Spin Energy      =      -4.0450169112812082 [Eh]
	 Correlation Energy        =      -5.5139319146099126 [Eh]
	 Total Energy              =   -1577.8646511079236916 [Eh]

	 ================> DF-SCS-MP2 Energies <==================
	-----------------------------------------------------------
	 SCS Same-Spin Scale       =       0.3333333333333333 [-]
	 SCS Opposite-Spin Scale   =       1.2000000000000000 [-]
	 SCS Same-Spin Energy      =      -0.4896383344429015 [Eh]
	 SCS Opposite-Spin Energy  =      -4.8540202935374497 [Eh]
	 SCS Correlation Energy    =      -5.3436586279803509 [Eh]
	 SCS Total Energy          =   -1577.6943778212942107 [Eh]
	-----------------------------------------------------------

*** Psi4 exiting successfully. Buy a developer a beer!
