                               Psi4 1.3.2 release

  ==> Input File <==

--------------------------------------------------------------------------
molecule {
0 1
 C   -0.390989    4.126291    1.411511
 C    0.983503    3.966886    1.643491
 C    1.642009    2.807121    1.190156
 C    0.829870    1.870178    0.504029
 N   -0.480176    2.005183    0.270830
 C   -1.077767    3.118866    0.721647
 C    3.118389    2.545318    1.367563
 C    4.060257    3.451789    1.880701
 C    5.390294    3.009810    1.887878
 N    5.792770    1.814840    1.455724
 C    4.819474    1.000851    1.000000
 N    3.529786    1.333364    0.955962
 N    5.220643   -0.251666    0.556319
 C    4.497201   -1.342533   -0.056313
 C    5.197065   -2.380310   -0.744167
 C    4.424845   -3.374680   -1.373572
 C    3.023190   -3.409373   -1.363886
 C    2.359270   -2.420643   -0.634430
 C    3.101794   -1.421388    0.004888
 N    0.961448   -2.263967   -0.465662
 C    0.073169   -2.956641    0.318860
 C   -1.401546   -2.712969    0.067975
 C   -1.957047   -2.475038   -1.199067
 C   -3.305813   -2.130741   -1.320079
 C   -4.168254   -2.123485   -0.206672
 C   -3.613331   -2.450681    1.045261
 C   -2.253012   -2.733118    1.185305
 C   -5.636589   -1.716976   -0.342080
 N   -6.021992   -0.295176   -0.325149
 C   -5.756655    0.550623   -1.513133
 C   -4.461876    1.405236   -1.446683
 N   -4.337887    2.233105   -0.221429
 C   -5.118607    3.476596   -0.206083
 C   -4.494608    1.332517    0.944099
 C   -5.787929    0.479867    0.916193
 O    0.435076   -3.722272    1.195500
 C    6.711665   -2.423570   -0.851626
 H   -0.921049    5.010339    1.752952
 H    1.515562    4.747503    2.182065
 H    1.260445    0.964290    0.093210
 H   -2.142586    3.205804    0.511995
 H    3.821033    4.448842    2.229633
 H    6.201204    3.640659    2.250959
 H    6.224387   -0.329730    0.619597
 H    4.932479   -4.164187   -1.926684
 H    2.466899   -4.190623   -1.866470
 H    2.569078   -0.685056    0.581852
 H    0.563567   -1.570361   -1.083985
 H   -1.316694   -2.509953   -2.076798
 H   -3.695201   -1.881040   -2.306836
 H   -4.242014   -2.450520    1.935018
 H   -1.830816   -2.956665    2.162113
 H   -6.015497   -2.135919   -1.285095
 H   -6.199427   -2.191709    0.474510
 H   -5.771433   -0.119992   -2.517534
 H   -6.901959    1.494766   -1.625959
 H   -4.385219    2.192710   -2.506493
 H   -3.321720    0.542865   -1.475602
 H   -6.193717    3.267843   -0.235655
 H   -4.855097    4.099229   -1.068896
 H   -4.896825    4.049956    0.701705
 H   -4.433714    1.998233    1.983850
 H   -3.291135    0.392959    0.934524
 H   -6.930234    1.401736    1.064402
 H   -5.817947   -0.273808    1.900267
 H    7.208208   -2.452404    0.128659
 H    7.092148   -1.545098   -1.379908
 H    7.069308   -3.298820   -1.400002
}
memory 20GB
set_num_threads(6)
psi4_io.set_default_path("/scratch/bdw2292")
set freeze_core True
E, wfn = energy('mp2/6-311++G**',return_wfn=True)
oeprop(wfn,"WIBERG_LOWDIN_INDICES")
clean()
--------------------------------------------------------------------------

    Molecular point group: c1

    Geometry (in Angstrom), charge = 0, multiplicity = 1:

       Center              X                  Y                   Z               Mass
    ------------   -----------------  -----------------  -----------------  -----------------
         C           -0.491307624615     4.170600820052     1.194537951902    12.000000000000
         C            0.883184375385     4.011195820052     1.426517951902    12.000000000000
         C            1.541690375385     2.851430820052     0.973182951902    12.000000000000
         C            0.729551375385     1.914487820052     0.287055951902    12.000000000000
         N           -0.580494624615     2.049492820052     0.053856951902    14.003074004430
         C           -1.178085624615     3.163175820052     0.504673951902    12.000000000000
         C            3.018070375385     2.589627820052     1.150589951902    12.000000000000
         C            3.959938375385     3.496098820052     1.663727951902    12.000000000000
         C            5.289975375385     3.054119820052     1.670904951902    12.000000000000
         N            5.692451375385     1.859149820052     1.238750951902    14.003074004430
         C            4.719155375385     1.045160820052     0.783026951902    12.000000000000
         N            3.429467375385     1.377673820052     0.738988951902    14.003074004430
         N            5.120324375385    -0.207356179948     0.339345951902    14.003074004430
         C            4.396882375385    -1.298223179948    -0.273286048098    12.000000000000
         C            5.096746375385    -2.336000179948    -0.961140048098    12.000000000000
         C            4.324526375385    -3.330370179948    -1.590545048098    12.000000000000
         C            2.922871375385    -3.365063179948    -1.580859048098    12.000000000000
         C            2.258951375385    -2.376333179948    -0.851403048098    12.000000000000
         C            3.001475375385    -1.377078179948    -0.212085048098    12.000000000000
         N            0.861129375385    -2.219657179948    -0.682635048098    14.003074004430
         C           -0.027149624615    -2.912331179948     0.101886951902    12.000000000000
         C           -1.501864624615    -2.668659179948    -0.148998048098    12.000000000000
         C           -2.057365624615    -2.430728179948    -1.416040048098    12.000000000000
         C           -3.406131624615    -2.086431179948    -1.537052048098    12.000000000000
         C           -4.268572624615    -2.079175179948    -0.423645048098    12.000000000000
         C           -3.713649624615    -2.406371179948     0.828287951902    12.000000000000
         C           -2.353330624615    -2.688808179948     0.968331951902    12.000000000000
         C           -5.736907624615    -1.672666179948    -0.559053048098    12.000000000000
         N           -6.122310624615    -0.250866179948    -0.542122048098    14.003074004430
         C           -5.856973624615     0.594932820052    -1.730106048098    12.000000000000
         C           -4.562194624615     1.449545820052    -1.663656048098    12.000000000000
         N           -4.438205624615     2.277414820052    -0.438402048098    14.003074004430
         C           -5.218925624615     3.520905820052    -0.423056048098    12.000000000000
         C           -4.594926624615     1.376826820052     0.727125951902    12.000000000000
         C           -5.888247624615     0.524176820052     0.699219951902    12.000000000000
         O            0.334757375385    -3.677962179948     0.978526951902    15.994914619570
         C            6.611346375385    -2.379260179948    -1.068599048098    12.000000000000
         H           -1.021367624615     5.054648820052     1.535978951902     1.007825032230
         H            1.415243375385     4.791812820052     1.965091951902     1.007825032230
         H            1.160126375385     1.008599820052    -0.123763048098     1.007825032230
         H           -2.242904624615     3.250113820052     0.295021951902     1.007825032230
         H            3.720714375385     4.493151820052     2.012659951902     1.007825032230
         H            6.100885375385     3.684968820052     2.033985951902     1.007825032230
         H            6.124068375385    -0.285420179948     0.402623951902     1.007825032230
         H            4.832160375385    -4.119877179948    -2.143657048098     1.007825032230
         H            2.366580375385    -4.146313179948    -2.083443048098     1.007825032230
         H            2.468759375385    -0.640746179948     0.364878951902     1.007825032230
         H            0.463248375385    -1.526051179948    -1.300958048098     1.007825032230
         H           -1.417012624615    -2.465643179948    -2.293771048098     1.007825032230
         H           -3.795519624615    -1.836730179948    -2.523809048098     1.007825032230
         H           -4.342332624615    -2.406210179948     1.718044951902     1.007825032230
         H           -1.931134624615    -2.912355179948     1.945139951902     1.007825032230
         H           -6.115815624615    -2.091609179948    -1.502068048098     1.007825032230
         H           -6.299745624615    -2.147399179948     0.257536951902     1.007825032230
         H           -5.871751624615    -0.075682179948    -2.734507048098     1.007825032230
         H           -7.002277624615     1.539075820052    -1.842932048098     1.007825032230
         H           -4.485537624615     2.237019820052    -2.723466048098     1.007825032230
         H           -3.422038624615     0.587174820052    -1.692575048098     1.007825032230
         H           -6.294035624615     3.312152820052    -0.452628048098     1.007825032230
         H           -4.955415624615     4.143538820052    -1.285869048098     1.007825032230
         H           -4.997143624615     4.094265820052     0.484731951902     1.007825032230
         H           -4.534032624615     2.042542820052     1.766876951902     1.007825032230
         H           -3.391453624615     0.437268820052     0.717550951902     1.007825032230
         H           -7.030552624615     1.446045820052     0.847428951902     1.007825032230
         H           -5.918265624615    -0.229498179948     1.683293951902     1.007825032230
         H            7.107889375385    -2.408094179948    -0.088314048098     1.007825032230
         H            6.991829375385    -1.500788179948    -1.596881048098     1.007825032230
         H            6.968989375385    -3.254510179948    -1.616975048098     1.007825032230

  Charge       = 0
  Multiplicity = 1
  Basis Set: 6-311++G**
    Blend: 6-311++G**
  Basis Set: (6-311++G** AUX)
    Blend: AUG-CC-PVTZ-JKFIT

    Orbital Energies [Eh]
    ---------------------

    Doubly Occupied:

       1A    -20.514468     2A    -15.600302     3A    -15.586296
       4A    -15.572273     5A    -15.569207     6A    -15.567782
       7A    -15.564509     8A    -15.559599     9A    -11.368510
      10A    -11.357899    11A    -11.326546    12A    -11.319052
      13A    -11.318035    14A    -11.314946    15A    -11.313986
      16A    -11.307847    17A    -11.297625    18A    -11.285380
      19A    -11.281471    20A    -11.279079    21A    -11.277881
      22A    -11.277156    23A    -11.267061    24A    -11.256410
      25A    -11.256162    26A    -11.255255    27A    -11.255242
      28A    -11.254974    29A    -11.250827    30A    -11.247780
      31A    -11.247672    32A    -11.245790    33A    -11.244857
      34A    -11.242313    35A    -11.237122    36A    -11.236358
      37A    -11.225793    38A     -1.380289    39A     -1.338449
      40A     -1.262351    41A     -1.248192    42A     -1.246351
      43A     -1.235748    44A     -1.205377    45A     -1.202199
      46A     -1.161614    47A     -1.138885    48A     -1.103503
      49A     -1.066539    50A     -1.057978    51A     -1.038455
      52A     -1.035079    53A     -1.023900    54A     -1.007804
      55A     -0.990922    56A     -0.978801    57A     -0.947469
      58A     -0.930179    59A     -0.915994    60A     -0.893977
      61A     -0.866248    62A     -0.860525    63A     -0.847796
      64A     -0.842044    65A     -0.832756    66A     -0.825826
      67A     -0.819980    68A     -0.803889    69A     -0.777998
      70A     -0.744480    71A     -0.739677    72A     -0.725124
      73A     -0.713562    74A     -0.696743    75A     -0.690825
      76A     -0.677412    77A     -0.670804    78A     -0.658820
      79A     -0.657573    80A     -0.653635    81A     -0.648607
      82A     -0.643459    83A     -0.635270    84A     -0.629448
      85A     -0.624982    86A     -0.620110    87A     -0.612553
      88A     -0.608719    89A     -0.602097    90A     -0.596805
      91A     -0.594716    92A     -0.593990    93A     -0.586401
      94A     -0.582888    95A     -0.582208    96A     -0.576371
      97A     -0.576071    98A     -0.571981    99A     -0.561620
     100A     -0.547896   101A     -0.544347   102A     -0.532116
     103A     -0.530581   104A     -0.525041   105A     -0.520506
     106A     -0.517658   107A     -0.515183   108A     -0.507393
     109A     -0.506082   110A     -0.503066   111A     -0.499877
     112A     -0.492470   113A     -0.479019   114A     -0.469539
     115A     -0.460407   116A     -0.442029   117A     -0.433201
     118A     -0.426499   119A     -0.423718   120A     -0.404517
     121A     -0.400920   122A     -0.399219   123A     -0.388460
     124A     -0.385536   125A     -0.367468   126A     -0.345381
     127A     -0.341707   128A     -0.335151   129A     -0.328477
     130A     -0.316257   131A     -0.295707

  @DF-RHF Final Energy: -1572.30930164660413

   => Energetics <=

    Nuclear Repulsion Energy =           3812.9489858607039423
    One-Electron Energy =               -9725.0506685395776003
    Two-Electron Energy =                4339.7923810322699865
    Total Energy =                      -1572.3093016466036715

  Dipole Moment: [D]
     X:    -0.2876      Y:     4.9557      Z:    -1.5648     Total:     5.2048

  Basis Set: (6-311++G** AUX)
    Blend: AUG-CC-PVTZ-RI
	 Reference Energy          =   -1572.3093016466041263 [Eh]
	 Singles Energy            =      -0.0000000000000000 [Eh]
	 Same-Spin Energy          =      -1.4743021018937150 [Eh]
	 Opposite-Spin Energy      =      -4.0552095321240316 [Eh]
	 Correlation Energy        =      -5.5295116340177461 [Eh]
	 Total Energy              =   -1577.8388132806219346 [Eh]

	 ================> DF-SCS-MP2 Energies <==================
	-----------------------------------------------------------
	 SCS Same-Spin Scale       =       0.3333333333333333 [-]
	 SCS Opposite-Spin Scale   =       1.2000000000000000 [-]
	 SCS Same-Spin Energy      =      -0.4914340339645716 [Eh]
	 SCS Opposite-Spin Energy  =      -4.8662514385488373 [Eh]
	 SCS Correlation Energy    =      -5.3576854725134089 [Eh]
	 SCS Total Energy          =   -1577.6669871191174934 [Eh]
	-----------------------------------------------------------

*** Psi4 exiting successfully. Buy a developer a beer!
