 Gaussian 09, Revision A.02,
 Gaussian 09:  EM64L-G09RevA.02 11-Jun-2009

 --------------------------------------------------
 #P opt=(,maxcycle=400) wB97XD/6-31G* MaxDisk=100GB
 --------------------------------------------------

 -----------------------------------------------------------------
 MOLECULE0 Rotatable Bond Optimization on g2-node38.bme.utexas.edu
 -----------------------------------------------------------------
 Symbolic Z-matrix:
 Charge =  0 Multiplicity = 1

 SCF Done:  E(RwB97XD) =  -1581.52414434     A.U. after   16 cycles
 SCF Done:  E(RwB97XD) =  -1581.58632481     A.U. after   13 cycles
 SCF Done:  E(RwB97XD) =  -1581.68331822     A.U. after   14 cycles
 SCF Done:  E(RwB97XD) =  -1581.72254474     A.U. after   14 cycles
 SCF Done:  E(RwB97XD) =  -1581.74605290     A.U. after   17 cycles
 SCF Done:  E(RwB97XD) =  -1581.75596302     A.U. after   17 cycles
 SCF Done:  E(RwB97XD) =  -1581.74977488     A.U. after   17 cycles
 SCF Done:  E(RwB97XD) =  -1581.75630530     A.U. after   17 cycles
 SCF Done:  E(RwB97XD) =  -1581.75650778     A.U. after   16 cycles
 SCF Done:  E(RwB97XD) =  -1581.76097977     A.U. after   17 cycles
 SCF Done:  E(RwB97XD) =  -1581.76315796     A.U. after   13 cycles
 SCF Done:  E(RwB97XD) =  -1581.76319709     A.U. after   12 cycles
 SCF Done:  E(RwB97XD) =  -1581.76320823     A.U. after   12 cycles
 SCF Done:  E(RwB97XD) =  -1581.76321165     A.U. after   11 cycles
 SCF Done:  E(RwB97XD) =  -1581.76321511     A.U. after   10 cycles
 SCF Done:  E(RwB97XD) =  -1581.76321525     A.U. after    8 cycles
 SCF Done:  E(RwB97XD) =  -1581.76321541     A.U. after    7 cycles
 SCF Done:  E(RwB97XD) =  -1581.76321586     A.U. after    7 cycles
 SCF Done:  E(RwB97XD) =  -1581.76321574     A.U. after    6 cycles
 SCF Done:  E(RwB97XD) =  -1581.76321597     A.U. after    7 cycles
 Optimization completed.
    -- Stationary point found.

                         Standard orientation:
 ---------------------------------------------------------------------
 Center     Atomic      Atomic             Coordinates (Angstroms)
 Number     Number       Type             X           Y           Z
 ---------------------------------------------------------------------
      1          6           0       -0.473803    4.274732   -0.772419
      2          6           0        0.870699    4.192227   -0.430948
      3          6           0        1.547256    2.990268   -0.631853
      4          6           0        0.820999    1.926051   -1.182806
      5          7           0       -0.467925    1.989637   -1.512086
      6          6           0       -1.096967    3.149664   -1.301315
      7          6           0        2.969069    2.789301   -0.253834
      8          6           0        3.899957    3.819366   -0.154338
      9          6           0        5.185833    3.446926    0.235880
     10          7           0        5.545220    2.197643    0.497375
     11          6           0        4.571905    1.275132    0.354984
     12          7           0        3.311993    1.523678   -0.002044
     13          7           0        4.960690   -0.010820    0.613785
     14          6           0        4.245103   -1.216975    0.494863
     15          6           0        4.968973   -2.426596    0.479735
     16          6           0        4.248485   -3.609476    0.338104
     17          6           0        2.862753   -3.650833    0.195043
     18          6           0        2.171385   -2.443337    0.216904
     19          6           0        2.859575   -1.243368    0.393836
     20          7           0        0.784913   -2.305363    0.038750
     21          6           0       -0.155243   -3.232647   -0.331061
     22          6           0       -1.474713   -2.601195   -0.675286
     23          6           0       -1.549901   -1.358310   -1.311011
     24          6           0       -2.782231   -0.778959   -1.574536
     25          6           0       -3.965583   -1.410020   -1.191141
     26          6           0       -3.883856   -2.677397   -0.607492
     27          6           0       -2.653722   -3.274386   -0.357439
     28          6           0       -5.302615   -0.704227   -1.348098
     29          7           0       -5.692574    0.226198   -0.299523
     30          6           0       -5.025285    1.522722   -0.247595
     31          6           0       -3.815331    1.577470    0.702892
     32          7           0       -4.112852    1.068923    2.039021
     33          6           0       -4.901507    1.978337    2.851159
     34          6           0       -4.679333   -0.274360    1.940230
     35          6           0       -5.914429   -0.339817    1.026480
     36          8           0        0.036663   -4.436520   -0.364318
     37          6           0        6.471745   -2.442257    0.599554
     38          1           0       -1.033346    5.191338   -0.619811
     39          1           0        1.375665    5.045396    0.012882
     40          1           0        1.325248    0.980727   -1.366552
     41          1           0       -2.151875    3.176371   -1.565891
     42          1           0        3.660944    4.851140   -0.380283
     43          1           0        5.967329    4.197130    0.338842
     44          1           0        5.941880   -0.076849    0.839867
     45          1           0        4.796797   -4.548109    0.324782
     46          1           0        2.333894   -4.584918    0.064052
     47          1           0        2.314416   -0.312063    0.419266
     48          1           0        0.446340   -1.358934    0.130011
     49          1           0       -0.653479   -0.833412   -1.628130
     50          1           0       -2.810137    0.190395   -2.065645
     51          1           0       -4.798549   -3.197166   -0.330872
     52          1           0       -2.590030   -4.256860    0.099662
     53          1           0       -5.308427   -0.149142   -2.293974
     54          1           0       -6.094982   -1.460051   -1.422329
     55          1           0       -4.723493    1.803884   -1.263676
     56          1           0       -5.766442    2.268094    0.078290
     57          1           0       -3.457685    2.611266    0.792304
     58          1           0       -2.990702    0.981930    0.295801
     59          1           0       -5.911501    2.206094    2.467028
     60          1           0       -4.363588    2.927607    2.951218
     61          1           0       -5.017353    1.551592    3.853419
     62          1           0       -4.937962   -0.622705    2.947564
     63          1           0       -3.897596   -0.938141    1.552796
     64          1           0       -6.743001    0.208899    1.498427
     65          1           0       -6.248493   -1.377531    0.915673
     66          1           0        6.817084   -2.030994    1.557990
     67          1           0        6.952032   -1.865491   -0.201555
     68          1           0        6.852137   -3.464817    0.535492
 ---------------------------------------------------------------------

 The electronic state is 1-A.
 Alpha  occ. eigenvalues --  -19.23412 -14.49282 -14.48321 -14.46751 -14.46096
 Alpha  occ. eigenvalues --  -14.45764 -14.43617 -14.43135 -10.41778 -10.40081
 Alpha  occ. eigenvalues --  -10.37615 -10.36338 -10.35325 -10.35084 -10.34623
 Alpha  occ. eigenvalues --  -10.34135 -10.34016 -10.33622 -10.32863 -10.32367
 Alpha  occ. eigenvalues --  -10.31860 -10.31492 -10.31179 -10.30936 -10.30708
 Alpha  occ. eigenvalues --  -10.30688 -10.30677 -10.30586 -10.30534 -10.30403
 Alpha  occ. eigenvalues --  -10.30377 -10.30220 -10.30020 -10.29975 -10.29575
 Alpha  occ. eigenvalues --  -10.28740 -10.28405  -1.13443  -1.12295  -1.06322
 Alpha  occ. eigenvalues --   -1.04565  -1.03829  -1.03634  -1.00715  -0.99558
 Alpha  occ. eigenvalues --   -0.96086  -0.94671  -0.93098  -0.89777  -0.88125
 Alpha  occ. eigenvalues --   -0.87388  -0.86228  -0.85400  -0.84542  -0.83783
 Alpha  occ. eigenvalues --   -0.81888  -0.79581  -0.78270  -0.77798  -0.76320
 Alpha  occ. eigenvalues --   -0.73881  -0.73301  -0.73025  -0.72621  -0.70871
 Alpha  occ. eigenvalues --   -0.70314  -0.69615  -0.68039  -0.66413  -0.65150
 Alpha  occ. eigenvalues --   -0.63656  -0.63409  -0.62228  -0.61762  -0.60211
 Alpha  occ. eigenvalues --   -0.58848  -0.58045  -0.57570  -0.56611  -0.56101
 Alpha  occ. eigenvalues --   -0.55817  -0.55236  -0.55134  -0.54965  -0.54255
 Alpha  occ. eigenvalues --   -0.53867  -0.53239  -0.53154  -0.52612  -0.52174
 Alpha  occ. eigenvalues --   -0.51913  -0.51510  -0.51370  -0.50999  -0.50575
 Alpha  occ. eigenvalues --   -0.50365  -0.50116  -0.49975  -0.49497  -0.48335
 Alpha  occ. eigenvalues --   -0.47217  -0.46906  -0.46619  -0.46319  -0.46211
 Alpha  occ. eigenvalues --   -0.45762  -0.45235  -0.44798  -0.44045  -0.43932
 Alpha  occ. eigenvalues --   -0.43328  -0.43017  -0.42142  -0.41766  -0.41439
 Alpha  occ. eigenvalues --   -0.40964  -0.40777  -0.39912  -0.38187  -0.37592
 Alpha  occ. eigenvalues --   -0.35821  -0.35293  -0.34001  -0.33447  -0.33373
 Alpha  occ. eigenvalues --   -0.32818  -0.31904  -0.30773  -0.29115  -0.27080
 Alpha  occ. eigenvalues --   -0.24996
 Alpha virt. eigenvalues --   -0.00292   0.02872   0.03585   0.04481   0.06433
 Alpha virt. eigenvalues --    0.07258   0.08204   0.10370   0.13887   0.14815
 Alpha virt. eigenvalues --    0.15728   0.16386   0.17252   0.17441   0.18251

 Mulliken atomic charges:
              1
     1  C   -0.197840
     2  C   -0.154402
     3  C    0.035497
     4  C    0.009587
     5  N   -0.437522
     6  C    0.035723
     7  C    0.295158
     8  C   -0.254760
     9  C    0.049015
    10  N   -0.493031
    11  C    0.714329
    12  N   -0.568390
    13  N   -0.802022
    14  C    0.291468
    15  C    0.119863
    16  C   -0.240379
    17  C   -0.191305
    18  C    0.358198
    19  C   -0.269691
    20  N   -0.758020
    21  C    0.585773
    22  C    0.015186
    23  C   -0.205361
    24  C   -0.217909
    25  C    0.155976
    26  C   -0.223079
    27  C   -0.178389
    28  C   -0.263562
    29  N   -0.382223
    30  C   -0.183908
    31  C   -0.181772
    32  N   -0.385711
    33  C   -0.349277
    34  C   -0.182639
    35  C   -0.186518
    36  O   -0.513287
    37  C   -0.607368
    38  H    0.186142
    39  H    0.186725
    40  H    0.198124
    41  H    0.179045
    42  H    0.180745
    43  H    0.189490
    44  H    0.369210
    45  H    0.160820
    46  H    0.213083
    47  H    0.199342
    48  H    0.361561
    49  H    0.185477
    50  H    0.172055
    51  H    0.163618
    52  H    0.195612
    53  H    0.170279
    54  H    0.168921
    55  H    0.148150
    56  H    0.158361
    57  H    0.141662
    58  H    0.174893
    59  H    0.135270
    60  H    0.164121
    61  H    0.167875
    62  H    0.153491
    63  H    0.172911
    64  H    0.159417
    65  H    0.154991
    66  H    0.178038
    67  H    0.182745
    68  H    0.190418
 Sum of Mulliken atomic charges =   0.00000

 Dipole moment (field-independent basis, Debye):
    X=              0.5799    Y=              6.5719    Z=              0.4329  Tot=              6.6116
 Quadrupole moment (field-independent basis, Debye-Ang):
   XX=           -193.2974   YY=           -202.5093   ZZ=           -220.4847
   XY=              3.1051   XZ=             -1.2830   YZ=             -5.2200

 Normal termination of Gaussian 09 at Tue Mar 10 13:21:29 2020.
