                               Psi4 1.3.2 release

  ==> Input File <==

--------------------------------------------------------------------------
molecule {
0 1
 C    0.540096    4.737249   -1.823382
 C    1.890078    4.540094   -1.500420
 C    2.360802    3.245170   -1.207613
 C    1.403045    2.206303   -1.305144
 N    0.108897    2.373800   -1.605979
 C   -0.308593    3.624734   -1.854866
 C    3.778740    2.934360   -0.796600
 C    4.840496    3.852734   -0.770362
 C    6.070515    3.347125   -0.330948
 N    6.274178    2.088178    0.053053
 C    5.198523    1.277069    0.003470
 N    3.989182    1.664327   -0.405496
 N    5.412153   -0.029022    0.417588
 C    4.575157   -1.203771    0.451672
 C    5.162926   -2.496738    0.598811
 C    4.294638   -3.602252    0.602291
 C    2.904697   -3.508186    0.463683
 C    2.338142   -2.236383    0.336922
 C    3.181958   -1.115679    0.346520
 N    0.946951   -1.946363    0.163694
 C   -0.139730   -2.757564   -0.067498
 C   -1.457827   -2.116353   -0.477520
 C   -1.641702   -0.751493   -0.763574
 C   -2.906533   -0.252044   -1.079195
 C   -4.035478   -1.088733   -1.137324
 C   -3.833341   -2.462857   -0.905851
 C   -2.569054   -2.970841   -0.595615
 C   -5.430732   -0.511441   -1.381379
 N   -6.191247    0.042109   -0.246891
 C   -5.807157    1.359106    0.313141
 C   -4.857297    1.302603    1.537589
 N   -5.336778    0.422342    2.628208
 C   -6.331471    0.992190    3.544919
 C   -5.642077   -0.913086    2.059330
 C   -6.601275   -0.874089    0.841636
 O   -0.069614   -3.971005    0.066819
 C    6.657839   -2.726455    0.739705
 H    0.152416    5.727578   -2.041688
 H    2.546748    5.405077   -1.458044
 H    1.694924    1.173392   -1.146071
 H   -1.365825    3.723856   -2.098431
 H    4.760413    4.892701   -1.064511
 H    6.959579    3.974037   -0.273381
 H    6.384716   -0.150262    0.656263
 H    4.711847   -4.603481    0.706036
 H    2.272911   -4.386877    0.446147
 H    2.744163   -0.135318    0.273772
 H    0.744498   -0.958425    0.139859
 H   -0.797942   -0.067655   -0.759024
 H   -3.010195    0.816358   -1.267070
 H   -4.680289   -3.148451   -0.939717
 H   -2.432351   -4.033460   -0.409065
 H   -5.348267    0.289235   -2.129942
 H   -6.057548   -1.299923   -1.822345
 H   -5.352863    2.062693   -0.546255
 H   -7.052735    2.006388    0.759124
 H   -4.676831    2.519257    2.019022
 H   -3.685697    0.854987    1.174998
 H   -7.271496    1.201767    3.021426
 H   -5.953179    1.924430    3.980638
 H   -6.533117    0.294708    4.366847
 H   -6.044991   -1.595472    2.882858
 H   -4.346527   -1.489213    1.616064
 H   -7.894036   -0.436737    1.302715
 H   -6.762792   -2.043327    0.381932
 H    7.090923   -2.195240    1.599068
 H    7.194529   -2.392194   -0.152125
 H    6.908103   -3.781721    0.875940
}
memory 20GB
set_num_threads(6)
psi4_io.set_default_path("/scratch/bdw2292")
set freeze_core True
E, wfn = energy('mp2/6-311++G**',return_wfn=True)
oeprop(wfn,"WIBERG_LOWDIN_INDICES")
clean()
--------------------------------------------------------------------------

    Molecular point group: c1

    Geometry (in Angstrom), charge = 0, multiplicity = 1:

       Center              X                  Y                   Z               Mass
    ------------   -----------------  -----------------  -----------------  -----------------
         C            0.377912905664     4.681975946619    -1.773536258694    12.000000000000
         C            1.727894905664     4.484820946619    -1.450574258694    12.000000000000
         C            2.198618905664     3.189896946619    -1.157767258694    12.000000000000
         C            1.240861905664     2.151029946619    -1.255298258694    12.000000000000
         N           -0.053286094336     2.318526946619    -1.556133258694    14.003074004430
         C           -0.470776094336     3.569460946619    -1.805020258694    12.000000000000
         C            3.616556905664     2.879086946619    -0.746754258694    12.000000000000
         C            4.678312905664     3.797460946619    -0.720516258694    12.000000000000
         C            5.908331905664     3.291851946619    -0.281102258694    12.000000000000
         N            6.111994905664     2.032904946619     0.102898741306    14.003074004430
         C            5.036339905664     1.221795946619     0.053315741306    12.000000000000
         N            3.826998905664     1.609053946619    -0.355650258694    14.003074004430
         N            5.249969905664    -0.084295053381     0.467433741306    14.003074004430
         C            4.412973905664    -1.259044053381     0.501517741306    12.000000000000
         C            5.000742905664    -2.552011053381     0.648656741306    12.000000000000
         C            4.132454905664    -3.657525053381     0.652136741306    12.000000000000
         C            2.742513905664    -3.563459053381     0.513528741306    12.000000000000
         C            2.175958905664    -2.291656053381     0.386767741306    12.000000000000
         C            3.019774905664    -1.170952053381     0.396365741306    12.000000000000
         N            0.784767905664    -2.001636053381     0.213539741306    14.003074004430
         C           -0.301913094336    -2.812837053381    -0.017652258694    12.000000000000
         C           -1.620010094336    -2.171626053381    -0.427674258694    12.000000000000
         C           -1.803885094336    -0.806766053381    -0.713728258694    12.000000000000
         C           -3.068716094336    -0.307317053381    -1.029349258694    12.000000000000
         C           -4.197661094336    -1.144006053381    -1.087478258694    12.000000000000
         C           -3.995524094336    -2.518130053381    -0.856005258694    12.000000000000
         C           -2.731237094336    -3.026114053381    -0.545769258694    12.000000000000
         C           -5.592915094336    -0.566714053381    -1.331533258694    12.000000000000
         N           -6.353430094336    -0.013164053381    -0.197045258694    14.003074004430
         C           -5.969340094336     1.303832946619     0.362986741306    12.000000000000
         C           -5.019480094336     1.247329946619     1.587434741306    12.000000000000
         N           -5.498961094336     0.367068946619     2.678053741306    14.003074004430
         C           -6.493654094336     0.936916946619     3.594764741306    12.000000000000
         C           -5.804260094336    -0.968359053381     2.109175741306    12.000000000000
         C           -6.763458094336    -0.929362053381     0.891481741306    12.000000000000
         O           -0.231797094336    -4.026278053381     0.116664741306    15.994914619570
         C            6.495655905664    -2.781728053381     0.789550741306    12.000000000000
         H           -0.009767094336     5.672304946619    -1.991842258694     1.007825032230
         H            2.384564905664     5.349803946619    -1.408198258694     1.007825032230
         H            1.532740905664     1.118118946619    -1.096225258694     1.007825032230
         H           -1.528008094336     3.668582946619    -2.048585258694     1.007825032230
         H            4.598229905664     4.837427946619    -1.014665258694     1.007825032230
         H            6.797395905664     3.918763946619    -0.223535258694     1.007825032230
         H            6.222532905664    -0.205535053381     0.706108741306     1.007825032230
         H            4.549663905664    -4.658754053381     0.755881741306     1.007825032230
         H            2.110727905664    -4.442150053381     0.495992741306     1.007825032230
         H            2.581979905664    -0.190591053381     0.323617741306     1.007825032230
         H            0.582314905664    -1.013698053381     0.189704741306     1.007825032230
         H           -0.960125094336    -0.122928053381    -0.709178258694     1.007825032230
         H           -3.172378094336     0.761084946619    -1.217224258694     1.007825032230
         H           -4.842472094336    -3.203724053381    -0.889871258694     1.007825032230
         H           -2.594534094336    -4.088733053381    -0.359219258694     1.007825032230
         H           -5.510450094336     0.233961946619    -2.080096258694     1.007825032230
         H           -6.219731094336    -1.355196053381    -1.772499258694     1.007825032230
         H           -5.515046094336     2.007419946619    -0.496409258694     1.007825032230
         H           -7.214918094336     1.951114946619     0.808969741306     1.007825032230
         H           -4.839014094336     2.463983946619     2.068867741306     1.007825032230
         H           -3.847880094336     0.799713946619     1.224843741306     1.007825032230
         H           -7.433679094336     1.146493946619     3.071271741306     1.007825032230
         H           -6.115362094336     1.869156946619     4.030483741306     1.007825032230
         H           -6.695300094336     0.239434946619     4.416692741306     1.007825032230
         H           -6.207174094336    -1.650745053381     2.932703741306     1.007825032230
         H           -4.508710094336    -1.544486053381     1.665909741306     1.007825032230
         H           -8.056219094336    -0.492010053381     1.352560741306     1.007825032230
         H           -6.924975094336    -2.098600053381     0.431777741306     1.007825032230
         H            6.928739905664    -2.250513053381     1.648913741306     1.007825032230
         H            7.032345905664    -2.447467053381    -0.102279258694     1.007825032230
         H            6.745919905664    -3.836994053381     0.925785741306     1.007825032230

  Charge       = 0
  Multiplicity = 1
  Basis Set: 6-311++G**
    Blend: 6-311++G**
  Basis Set: (6-311++G** AUX)
    Blend: AUG-CC-PVTZ-JKFIT

    Orbital Energies [Eh]
    ---------------------

    Doubly Occupied:

       1A    -20.518349     2A    -15.604014     3A    -15.599991
       4A    -15.588190     5A    -15.574048     6A    -15.568735
       7A    -15.567535     8A    -15.553295     9A    -11.375125
      10A    -11.364238    11A    -11.335074    12A    -11.314313
      13A    -11.313896    14A    -11.311258    15A    -11.302719
      16A    -11.301685    17A    -11.301000    18A    -11.300238
      19A    -11.297277    20A    -11.292033    21A    -11.290819
      22A    -11.281639    23A    -11.275783    24A    -11.267171
      25A    -11.256135    26A    -11.255431    27A    -11.253420
      28A    -11.253369    29A    -11.246910    30A    -11.246474
      31A    -11.246359    32A    -11.243038    33A    -11.242186
      34A    -11.238949    35A    -11.233188    36A    -11.229441
      37A    -11.223663    38A     -1.384525    39A     -1.345036
      40A     -1.279896    41A     -1.249804    42A     -1.243134
      43A     -1.240717    44A     -1.209751    45A     -1.198210
      46A     -1.159223    47A     -1.139019    48A     -1.116887
      49A     -1.075904    50A     -1.057487    51A     -1.049139
      52A     -1.036996    53A     -1.020977    54A     -1.007299
      55A     -0.990640    56A     -0.975262    57A     -0.946160
      58A     -0.927422    59A     -0.926864    60A     -0.901222
      61A     -0.873666    62A     -0.864290    63A     -0.858663
      64A     -0.841049    65A     -0.833279    66A     -0.826834
      67A     -0.823830    68A     -0.803490    69A     -0.777353
      70A     -0.754795    71A     -0.740503    72A     -0.730329
      73A     -0.722503    74A     -0.701285    75A     -0.695097
      76A     -0.683041    77A     -0.670996    78A     -0.666526
      79A     -0.658337    80A     -0.652424    81A     -0.651261
      82A     -0.639280    83A     -0.634033    84A     -0.629708
      85A     -0.622306    86A     -0.617052    87A     -0.610894
      88A     -0.607341    89A     -0.604862    90A     -0.602824
      91A     -0.601343    92A     -0.596842    93A     -0.592144
      94A     -0.589553    95A     -0.586502    96A     -0.580106
      97A     -0.577526    98A     -0.573948    99A     -0.563977
     100A     -0.562765   101A     -0.546769   102A     -0.545615
     103A     -0.527913   104A     -0.525680   105A     -0.521573
     106A     -0.520010   107A     -0.513332   108A     -0.509240
     109A     -0.507400   110A     -0.502740   111A     -0.502336
     112A     -0.490519   113A     -0.484502   114A     -0.480415
     115A     -0.459051   116A     -0.452221   117A     -0.444040
     118A     -0.432562   119A     -0.426923   120A     -0.424798
     121A     -0.414348   122A     -0.407582   123A     -0.401246
     124A     -0.379880   125A     -0.374162   126A     -0.347079
     127A     -0.344377   128A     -0.339125   129A     -0.314347
     130A     -0.310913   131A     -0.289127

  @DF-RHF Final Energy: -1572.36423885028921

   => Energetics <=

    Nuclear Repulsion Energy =           3725.2490260789909371
    One-Electron Energy =               -9549.0046635503931611
    Two-Electron Energy =                4251.3913986211127849
    Total Energy =                      -1572.3642388502894391

  Dipole Moment: [D]
     X:     1.2579      Y:     6.8118      Z:    -1.2557     Total:     7.0399

  Basis Set: (6-311++G** AUX)
    Blend: AUG-CC-PVTZ-RI
	 Reference Energy          =   -1572.3642388502892118 [Eh]
	 Singles Energy            =      -0.0000000000000000 [Eh]
	 Same-Spin Energy          =      -1.4709865329363860 [Eh]
	 Opposite-Spin Energy      =      -4.0471650514700368 [Eh]
	 Correlation Energy        =      -5.5181515844064233 [Eh]
	 Total Energy              =   -1577.8823904346957079 [Eh]

	 ================> DF-SCS-MP2 Energies <==================
	-----------------------------------------------------------
	 SCS Same-Spin Scale       =       0.3333333333333333 [-]
	 SCS Opposite-Spin Scale   =       1.2000000000000000 [-]
	 SCS Same-Spin Energy      =      -0.4903288443121286 [Eh]
	 SCS Opposite-Spin Energy  =      -4.8565980617640436 [Eh]
	 SCS Correlation Energy    =      -5.3469269060761722 [Eh]
	 SCS Total Energy          =   -1577.7111657563652898 [Eh]
	-----------------------------------------------------------

*** Psi4 exiting successfully. Buy a developer a beer!
