                               Psi4 1.3.2 release

  ==> Input File <==

--------------------------------------------------------------------------
molecule {
0 1
 C   -1.436869    5.046588   -0.311565
 C   -2.746342    4.551398   -0.238647
 C   -2.969096    3.165569   -0.113133
 C   -1.804476    2.361258   -0.042557
 N   -0.545345    2.813165   -0.103741
 C   -0.375283    4.136999   -0.242140
 C   -4.342120    2.543373   -0.036958
 C   -5.557603    3.244259    0.007821
 C   -6.708490    2.454663    0.110901
 N   -6.709283    1.125047    0.151050
 C   -5.498292    0.533838    0.077554
 N   -4.341678    1.196592   -0.013200
 N   -5.507554   -0.853928    0.098293
 C   -4.462196   -1.847601    0.139961
 C   -4.771902   -3.180917    0.546226
 C   -3.710344   -4.101164    0.589217
 C   -2.387488   -3.784781    0.257733
 C   -2.104682   -2.480875   -0.161604
 C   -3.143728   -1.538449   -0.214965
 N   -0.819464   -1.977539   -0.541795
 C    0.435347   -2.532866   -0.457487
 C    1.629069   -1.652357   -0.780584
 C    1.635722   -0.255885   -0.619103
 C    2.767003    0.490633   -0.953759
 C    3.942592   -0.125775   -1.421885
 C    3.923385   -1.524423   -1.580133
 C    2.794363   -2.279282   -1.253754
 C    5.175535    0.700285   -1.791188
 N    6.249477    0.860169   -0.795741
 C    7.089465   -0.307364   -0.446380
 C    6.633633   -1.081327    0.817821
 N    6.441683   -0.235945    2.019399
 C    7.648205    0.100903    2.784367
 C    5.545034    0.892936    1.672240
 C    5.983982    1.677320    0.408647
 O    0.607014   -3.703771   -0.154823
 C   -6.165311   -3.630316    0.951432
 H   -1.242316    6.109618   -0.419435
 H   -3.568707    5.260166   -0.298712
 H   -1.897873    1.290125    0.098540
 H    0.656703    4.481187   -0.291451
 H   -5.637170    4.324376   -0.005866
 H   -7.691042    2.922454    0.167460
 H   -6.454779   -1.183346    0.210240
 H   -3.906262   -5.124324    0.907762
 H   -1.596315   -4.522492    0.313906
 H   -2.934332   -0.532194   -0.539660
 H   -0.837077   -1.031672   -0.895590
 H    0.754573    0.252888   -0.234242
 H    2.730310    1.572096   -0.823694
 H    4.805878   -2.042196   -1.955485
 H    2.793873   -3.360553   -1.367593
 H    5.630441    0.261459   -2.690892
 H    4.852577    1.715535   -2.062727
 H    7.222278   -0.931210   -1.275426
 H    8.522194    0.261667   -0.082362
 H    7.642667   -2.088236    1.111315
 H    5.508353   -1.693058    0.582849
 H    8.320770    0.737432    2.198538
 H    8.183334   -0.812112    3.069115
 H    7.375090    0.630263    3.704496
 H    5.419490    1.524387    2.516067
 H    4.190336    0.286805    1.361236
 H    7.297932    2.396137    0.779340
 H    5.027823    2.654574    0.126156
 H   -6.864719   -3.577937    0.104969
 H   -6.572941   -3.003147    1.756870
 H   -6.192106   -4.665598    1.318828
}
memory 20GB
set_num_threads(6)
psi4_io.set_default_path("/scratch/bdw2292")
set freeze_core True
E, wfn = energy('mp2/6-311++G**',return_wfn=True)
oeprop(wfn,"WIBERG_LOWDIN_INDICES")
clean()
--------------------------------------------------------------------------

    Molecular point group: c1

    Geometry (in Angstrom), charge = 0, multiplicity = 1:

       Center              X                  Y                   Z               Mass
    ------------   -----------------  -----------------  -----------------  -----------------
         C           -1.320370651862     5.040906073467    -0.288747585503    12.000000000000
         C           -2.629843651862     4.545716073467    -0.215829585503    12.000000000000
         C           -2.852597651862     3.159887073467    -0.090315585503    12.000000000000
         C           -1.687977651862     2.355576073467    -0.019739585503    12.000000000000
         N           -0.428846651862     2.807483073467    -0.080923585503    14.003074004430
         C           -0.258784651862     4.131317073467    -0.219322585503    12.000000000000
         C           -4.225621651862     2.537691073467    -0.014140585503    12.000000000000
         C           -5.441104651862     3.238577073467     0.030638414497    12.000000000000
         C           -6.591991651862     2.448981073467     0.133718414497    12.000000000000
         N           -6.592784651862     1.119365073467     0.173867414497    14.003074004430
         C           -5.381793651862     0.528156073467     0.100371414497    12.000000000000
         N           -4.225179651862     1.190910073467     0.009617414497    14.003074004430
         N           -5.391055651862    -0.859609926533     0.121110414497    14.003074004430
         C           -4.345697651862    -1.853282926533     0.162778414497    12.000000000000
         C           -4.655403651862    -3.186598926533     0.569043414497    12.000000000000
         C           -3.593845651862    -4.106845926533     0.612034414497    12.000000000000
         C           -2.270989651862    -3.790462926533     0.280550414497    12.000000000000
         C           -1.988183651862    -2.486556926533    -0.138786585503    12.000000000000
         C           -3.027229651862    -1.544130926533    -0.192147585503    12.000000000000
         N           -0.702965651862    -1.983220926533    -0.518977585503    14.003074004430
         C            0.551845348138    -2.538547926533    -0.434669585503    12.000000000000
         C            1.745567348138    -1.658038926533    -0.757766585503    12.000000000000
         C            1.752220348138    -0.261566926533    -0.596285585503    12.000000000000
         C            2.883501348138     0.484951073467    -0.930941585503    12.000000000000
         C            4.059090348138    -0.131456926533    -1.399067585503    12.000000000000
         C            4.039883348138    -1.530104926533    -1.557315585503    12.000000000000
         C            2.910861348138    -2.284963926533    -1.230936585503    12.000000000000
         C            5.292033348138     0.694603073467    -1.768370585503    12.000000000000
         N            6.365975348138     0.854487073467    -0.772923585503    14.003074004430
         C            7.205963348138    -0.313045926533    -0.423562585503    12.000000000000
         C            6.750131348138    -1.087008926533     0.840638414497    12.000000000000
         N            6.558181348138    -0.241626926533     2.042216414497    14.003074004430
         C            7.764703348138     0.095221073467     2.807184414497    12.000000000000
         C            5.661532348138     0.887254073467     1.695057414497    12.000000000000
         C            6.100480348138     1.671638073467     0.431464414497    12.000000000000
         O            0.723512348138    -3.709452926533    -0.132005585503    15.994914619570
         C           -6.048812651862    -3.635997926533     0.974249414497    12.000000000000
         H           -1.125817651862     6.103936073467    -0.396617585503     1.007825032230
         H           -3.452208651862     5.254484073467    -0.275894585503     1.007825032230
         H           -1.781374651862     1.284443073467     0.121357414497     1.007825032230
         H            0.773201348138     4.475505073467    -0.268633585503     1.007825032230
         H           -5.520671651862     4.318694073467     0.016951414497     1.007825032230
         H           -7.574543651862     2.916772073467     0.190277414497     1.007825032230
         H           -6.338280651862    -1.189027926533     0.233057414497     1.007825032230
         H           -3.789763651862    -5.130005926533     0.930579414497     1.007825032230
         H           -1.479816651862    -4.528173926533     0.336723414497     1.007825032230
         H           -2.817833651862    -0.537875926533    -0.516842585503     1.007825032230
         H           -0.720578651862    -1.037353926533    -0.872772585503     1.007825032230
         H            0.871071348138     0.247206073467    -0.211424585503     1.007825032230
         H            2.846808348138     1.566414073467    -0.800876585503     1.007825032230
         H            4.922376348138    -2.047877926533    -1.932667585503     1.007825032230
         H            2.910371348138    -3.366234926533    -1.344775585503     1.007825032230
         H            5.746939348138     0.255777073467    -2.668074585503     1.007825032230
         H            4.969075348138     1.709853073467    -2.039909585503     1.007825032230
         H            7.338776348138    -0.936891926533    -1.252608585503     1.007825032230
         H            8.638692348138     0.255985073467    -0.059544585503     1.007825032230
         H            7.759165348138    -2.093917926533     1.134132414497     1.007825032230
         H            5.624851348138    -1.698739926533     0.605666414497     1.007825032230
         H            8.437268348138     0.731750073467     2.221355414497     1.007825032230
         H            8.299832348138    -0.817793926533     3.091932414497     1.007825032230
         H            7.491588348138     0.624581073467     3.727313414497     1.007825032230
         H            5.535988348138     1.518705073467     2.538884414497     1.007825032230
         H            4.306834348138     0.281123073467     1.384053414497     1.007825032230
         H            7.414430348138     2.390455073467     0.802157414497     1.007825032230
         H            5.144321348138     2.648892073467     0.148973414497     1.007825032230
         H           -6.748220651862    -3.583618926533     0.127786414497     1.007825032230
         H           -6.456442651862    -3.008828926533     1.779687414497     1.007825032230
         H           -6.075607651862    -4.671279926533     1.341645414497     1.007825032230

  Charge       = 0
  Multiplicity = 1
  Basis Set: 6-311++G**
    Blend: 6-311++G**
  Basis Set: (6-311++G** AUX)
    Blend: AUG-CC-PVTZ-JKFIT

    Orbital Energies [Eh]
    ---------------------

    Doubly Occupied:

       1A    -20.520060     2A    -15.604299     3A    -15.601909
       4A    -15.588456     5A    -15.575008     6A    -15.574514
       7A    -15.569865     8A    -15.556274     9A    -11.376237
      10A    -11.364051    11A    -11.335250    12A    -11.335192
      13A    -11.314896    14A    -11.311885    15A    -11.305387
      16A    -11.302431    17A    -11.301653    18A    -11.301526
      19A    -11.295908    20A    -11.292993    21A    -11.290384
      22A    -11.281400    23A    -11.280071    24A    -11.266621
      25A    -11.257747    26A    -11.257271    27A    -11.253664
      28A    -11.253258    29A    -11.249640    30A    -11.247340
      31A    -11.245685    32A    -11.245505    33A    -11.245093
      34A    -11.239917    35A    -11.235520    36A    -11.231040
      37A    -11.224922    38A     -1.386282    39A     -1.345016
      40A     -1.279630    41A     -1.251146    42A     -1.247524
      43A     -1.241510    44A     -1.210409    45A     -1.201752
      46A     -1.161854    47A     -1.139823    48A     -1.116670
      49A     -1.076120    50A     -1.059786    51A     -1.049347
      52A     -1.038134    53A     -1.023609    54A     -1.008114
      55A     -0.996765    56A     -0.977749    57A     -0.946741
      58A     -0.928038    59A     -0.927183    60A     -0.901486
      61A     -0.873524    62A     -0.867572    63A     -0.858755
      64A     -0.847923    65A     -0.841235    66A     -0.829346
      67A     -0.820105    68A     -0.804845    69A     -0.778417
      70A     -0.754737    71A     -0.740364    72A     -0.731580
      73A     -0.722574    74A     -0.702238    75A     -0.697304
      76A     -0.683608    77A     -0.673260    78A     -0.667072
      79A     -0.660433    80A     -0.657534    81A     -0.652137
      82A     -0.642035    83A     -0.637458    84A     -0.629845
      85A     -0.624025    86A     -0.619207    87A     -0.614426
      88A     -0.611499    89A     -0.606479    90A     -0.604177
      91A     -0.602719    92A     -0.598583    93A     -0.596248
      94A     -0.592119    95A     -0.588731    96A     -0.581210
      97A     -0.579706    98A     -0.571049    99A     -0.566279
     100A     -0.562396   101A     -0.548057   102A     -0.545243
     103A     -0.529754   104A     -0.526681   105A     -0.523187
     106A     -0.514900   107A     -0.513198   108A     -0.509233
     109A     -0.506944   110A     -0.498044   111A     -0.494744
     112A     -0.492183   113A     -0.485494   114A     -0.481261
     115A     -0.459320   116A     -0.452813   117A     -0.444116
     118A     -0.428432   119A     -0.426035   120A     -0.418943
     121A     -0.415411   122A     -0.401198   123A     -0.392069
     124A     -0.379513   125A     -0.374360   126A     -0.347261
     127A     -0.346245   128A     -0.341377   129A     -0.315347
     130A     -0.310771   131A     -0.290395

  @DF-RHF Final Energy: -1572.28564524194098

   => Energetics <=

    Nuclear Repulsion Energy =           3689.9338687617519099
    One-Electron Energy =               -9477.9333782128778694
    Two-Electron Energy =                4215.7138642091849761
    Total Energy =                      -1572.2856452419409834

  Dipole Moment: [D]
     X:    -3.2580      Y:     6.5682      Z:    -1.0847     Total:     7.4117

  Basis Set: (6-311++G** AUX)
    Blend: AUG-CC-PVTZ-RI
	 Reference Energy          =   -1572.2856452419409834 [Eh]
	 Singles Energy            =      -0.0000000000000000 [Eh]
	 Same-Spin Energy          =      -1.4717898100061946 [Eh]
	 Opposite-Spin Energy      =      -4.0519752582934458 [Eh]
	 Correlation Energy        =      -5.5237650682996406 [Eh]
	 Total Energy              =   -1577.8094103102405370 [Eh]

	 ================> DF-SCS-MP2 Energies <==================
	-----------------------------------------------------------
	 SCS Same-Spin Scale       =       0.3333333333333333 [-]
	 SCS Opposite-Spin Scale   =       1.2000000000000000 [-]
	 SCS Same-Spin Energy      =      -0.4905966033353982 [Eh]
	 SCS Opposite-Spin Energy  =      -4.8623703099521345 [Eh]
	 SCS Correlation Energy    =      -5.3529669132875330 [Eh]
	 SCS Total Energy          =   -1577.6386121552284294 [Eh]
	-----------------------------------------------------------

*** Psi4 exiting successfully. Buy a developer a beer!
