 Gaussian 09, Revision A.02,
 Gaussian 09:  EM64L-G09RevA.02 11-Jun-2009

 --------------------------------------------------
 #P opt=(,maxcycle=400) wB97XD/6-31G* MaxDisk=100GB
 --------------------------------------------------

 -----------------------------------------------------------------
 MOLECULE0 Rotatable Bond Optimization on g2-node38.bme.utexas.edu
 -----------------------------------------------------------------
 Symbolic Z-matrix:
 Charge =  0 Multiplicity = 1

 SCF Done:  E(RwB97XD) =  -1581.49772035     A.U. after   16 cycles
 SCF Done:  E(RwB97XD) =  -1581.55824193     A.U. after   13 cycles
 SCF Done:  E(RwB97XD) =  -1581.65786986     A.U. after   14 cycles
 SCF Done:  E(RwB97XD) =  -1581.70951220     A.U. after   14 cycles
 SCF Done:  E(RwB97XD) =  -1581.73228873     A.U. after   14 cycles
 SCF Done:  E(RwB97XD) =  -1581.73841587     A.U. after   17 cycles
 SCF Done:  E(RwB97XD) =  -1581.74388961     A.U. after   14 cycles
 SCF Done:  E(RwB97XD) =  -1581.75011701     A.U. after   16 cycles
 SCF Done:  E(RwB97XD) =  -1581.75455599     A.U. after   17 cycles
 SCF Done:  E(RwB97XD) =  -1581.75620175     A.U. after   14 cycles
 SCF Done:  E(RwB97XD) =  -1581.75761357     A.U. after   13 cycles
 SCF Done:  E(RwB97XD) =  -1581.75765577     A.U. after   12 cycles
 SCF Done:  E(RwB97XD) =  -1581.75766642     A.U. after   12 cycles
 SCF Done:  E(RwB97XD) =  -1581.75767268     A.U. after   12 cycles
 SCF Done:  E(RwB97XD) =  -1581.75767533     A.U. after   10 cycles
 SCF Done:  E(RwB97XD) =  -1581.75767654     A.U. after   10 cycles
 SCF Done:  E(RwB97XD) =  -1581.75767698     A.U. after    8 cycles
 SCF Done:  E(RwB97XD) =  -1581.75767702     A.U. after    8 cycles
 SCF Done:  E(RwB97XD) =  -1581.75767704     A.U. after    7 cycles
 SCF Done:  E(RwB97XD) =  -1581.75767707     A.U. after    6 cycles
 Optimization completed.
    -- Stationary point found.

                         Standard orientation:
 ---------------------------------------------------------------------
 Center     Atomic      Atomic             Coordinates (Angstroms)
 Number     Number       Type             X           Y           Z
 ---------------------------------------------------------------------
      1          6           0       -8.548960   -3.377168   -0.596962
      2          6           0       -7.211167   -3.041445   -0.755803
      3          6           0       -6.721088   -1.895965   -0.128347
      4          6           0       -7.621923   -1.140168    0.631284
      5          7           0       -8.905628   -1.452423    0.796209
      6          6           0       -9.350994   -2.554363    0.187242
      7          6           0       -5.305639   -1.466999   -0.240630
      8          6           0       -4.273037   -2.364553   -0.543540
      9          6           0       -2.998822   -1.830726   -0.617267
     10          7           0       -2.723232   -0.542953   -0.410626
     11          6           0       -3.775099    0.228148   -0.111105
     12          7           0       -5.055065   -0.178973   -0.022125
     13          7           0       -3.616884    1.564139    0.131841
     14          6           0       -2.485463    2.394129    0.172600
     15          6           0       -2.706274    3.760788    0.444776
     16          6           0       -1.597596    4.596766    0.499020
     17          6           0       -0.296635    4.147510    0.297560
     18          6           0       -0.101592    2.795269    0.026922
     19          6           0       -1.191950    1.922991   -0.035316
     20          7           0        1.163683    2.225061   -0.215245
     21          6           0        2.402058    2.800225   -0.085777
     22          6           0        3.542915    1.894789   -0.456140
     23          6           0        3.444841    0.907173   -1.439192
     24          6           0        4.540293    0.105160   -1.737104
     25          6           0        5.748047    0.255455   -1.054124
     26          6           0        5.848289    1.273805   -0.102943
     27          6           0        4.763606    2.088851    0.191322
     28          6           0        6.916113   -0.684529   -1.315005
     29          7           0        6.980269   -1.917759   -0.549007
     30          6           0        6.017532   -2.965066   -0.868085
     31          6           0        4.749137   -2.933904    0.001933
     32          7           0        5.037020   -2.896710    1.432750
     33          6           0        5.482769   -4.167278    1.976400
     34          6           0        5.932250   -1.780720    1.727538
     35          6           0        7.219096   -1.801388    0.885088
     36          8           0        2.595085    3.938839    0.307917
     37          6           0       -4.093815    4.306186    0.671328
     38          1           0       -8.966584   -4.256143   -1.076326
     39          1           0       -6.566657   -3.653250   -1.380286
     40          1           0       -7.269849   -0.240815    1.128254
     41          1           0      -10.403768   -2.786268    0.332447
     42          1           0       -4.445434   -3.423322   -0.688412
     43          1           0       -2.145340   -2.464459   -0.849555
     44          1           0       -4.501856    2.006622    0.329160
     45          1           0       -1.754509    5.651863    0.708070
     46          1           0        0.544768    4.822351    0.355315
     47          1           0       -1.046094    0.871218   -0.245108
     48          1           0        1.151826    1.233294   -0.400686
     49          1           0        2.525596    0.783051   -2.006083
     50          1           0        4.454952   -0.652449   -2.512791
     51          1           0        6.791120    1.426429    0.417371
     52          1           0        4.843030    2.885406    0.923861
     53          1           0        6.918566   -0.961494   -2.376585
     54          1           0        7.851382   -0.140798   -1.131483
     55          1           0        5.753944   -2.891530   -1.929457
     56          1           0        6.518249   -3.935635   -0.734633
     57          1           0        4.127431   -3.812115   -0.211464
     58          1           0        4.158332   -2.042357   -0.239238
     59          1           0        6.432095   -4.555224    1.566504
     60          1           0        4.711014   -4.923840    1.796362
     61          1           0        5.606755   -4.066589    3.060027
     62          1           0        6.181361   -1.801018    2.795375
     63          1           0        5.381331   -0.852542    1.535410
     64          1           0        7.839101   -2.655582    1.195849
     65          1           0        7.810144   -0.898090    1.073914
     66          1           0       -4.579956    3.852717    1.545693
     67          1           0       -4.748695    4.145781   -0.195413
     68          1           0       -4.055420    5.383593    0.849968
 ---------------------------------------------------------------------

 The electronic state is 1-A.
 Alpha  occ. eigenvalues --  -19.23835 -14.49102 -14.48934 -14.45868 -14.45804
 Alpha  occ. eigenvalues --  -14.45506 -14.43973 -14.43415 -10.41652 -10.40645
 Alpha  occ. eigenvalues --  -10.37347 -10.36107 -10.34702 -10.34390 -10.34206
 Alpha  occ. eigenvalues --  -10.34098 -10.33405 -10.32869 -10.32823 -10.32041
 Alpha  occ. eigenvalues --  -10.31770 -10.31684 -10.31673 -10.31542 -10.31530
 Alpha  occ. eigenvalues --  -10.31429 -10.31086 -10.31041 -10.30949 -10.30886
 Alpha  occ. eigenvalues --  -10.30870 -10.30830 -10.30324 -10.30024 -10.29492
 Alpha  occ. eigenvalues --  -10.28982 -10.28255  -1.13999  -1.12112  -1.05378
 Alpha  occ. eigenvalues --   -1.04482  -1.04190  -1.03829  -1.00484  -0.99914
 Alpha  occ. eigenvalues --   -0.96781  -0.94847  -0.92393  -0.89396  -0.88367
 Alpha  occ. eigenvalues --   -0.86924  -0.86376  -0.85817  -0.85243  -0.83767
 Alpha  occ. eigenvalues --   -0.82265  -0.79762  -0.78188  -0.77517  -0.76441
 Alpha  occ. eigenvalues --   -0.73608  -0.73256  -0.73108  -0.72541  -0.71278
 Alpha  occ. eigenvalues --   -0.70659  -0.69528  -0.68359  -0.66305  -0.65184
 Alpha  occ. eigenvalues --   -0.64043  -0.63279  -0.62731  -0.61366  -0.60204
 Alpha  occ. eigenvalues --   -0.58491  -0.58319  -0.57251  -0.56992  -0.55833
 Alpha  occ. eigenvalues --   -0.55623  -0.55450  -0.55269  -0.54755  -0.54393
 Alpha  occ. eigenvalues --   -0.54210  -0.53699  -0.53242  -0.52997  -0.52383
 Alpha  occ. eigenvalues --   -0.51676  -0.51645  -0.51396  -0.50863  -0.50697
 Alpha  occ. eigenvalues --   -0.50444  -0.49925  -0.49788  -0.49515  -0.48774
 Alpha  occ. eigenvalues --   -0.47363  -0.47074  -0.46914  -0.46620  -0.46099
 Alpha  occ. eigenvalues --   -0.45608  -0.45509  -0.45153  -0.44494  -0.43966
 Alpha  occ. eigenvalues --   -0.43333  -0.43083  -0.42785  -0.41894  -0.41521
 Alpha  occ. eigenvalues --   -0.41305  -0.41189  -0.39933  -0.38173  -0.37066
 Alpha  occ. eigenvalues --   -0.35184  -0.34843  -0.34010  -0.33662  -0.33465
 Alpha  occ. eigenvalues --   -0.32914  -0.32452  -0.31162  -0.29303  -0.26950
 Alpha  occ. eigenvalues --   -0.25314
 Alpha virt. eigenvalues --    0.00191   0.02794   0.03625   0.04861   0.05697
 Alpha virt. eigenvalues --    0.07776   0.08204   0.10871   0.14329   0.15259
 Alpha virt. eigenvalues --    0.16231   0.16753   0.17028   0.17538   0.18746

 Mulliken atomic charges:
              1
     1  C   -0.195744
     2  C   -0.158538
     3  C    0.036601
     4  C    0.011619
     5  N   -0.421443
     6  C    0.025430
     7  C    0.286998
     8  C   -0.251858
     9  C    0.054320
    10  N   -0.496128
    11  C    0.725437
    12  N   -0.571900
    13  N   -0.811945
    14  C    0.302387
    15  C    0.115143
    16  C   -0.238760
    17  C   -0.192969
    18  C    0.357502
    19  C   -0.278806
    20  N   -0.765880
    21  C    0.597709
    22  C    0.017389
    23  C   -0.209353
    24  C   -0.219402
    25  C    0.158715
    26  C   -0.222626
    27  C   -0.175721
    28  C   -0.264167
    29  N   -0.380733
    30  C   -0.184670
    31  C   -0.180758
    32  N   -0.385181
    33  C   -0.350170
    34  C   -0.182777
    35  C   -0.186427
    36  O   -0.512551
    37  C   -0.612553
    38  H    0.181967
    39  H    0.181978
    40  H    0.198057
    41  H    0.181164
    42  H    0.180096
    43  H    0.184698
    44  H    0.370046
    45  H    0.160840
    46  H    0.216144
    47  H    0.204605
    48  H    0.358711
    49  H    0.174010
    50  H    0.164548
    51  H    0.167271
    52  H    0.201124
    53  H    0.170516
    54  H    0.171690
    55  H    0.151048
    56  H    0.160979
    57  H    0.151180
    58  H    0.163794
    59  H    0.135973
    60  H    0.166363
    61  H    0.168469
    62  H    0.154837
    63  H    0.169977
    64  H    0.161056
    65  H    0.154198
    66  H    0.181971
    67  H    0.182874
    68  H    0.191625
 Sum of Mulliken atomic charges =   0.00000

 Dipole moment (field-independent basis, Debye):
    X=             -0.3599    Y=             -5.3739    Z=             -2.0959  Tot=              5.7794
 Quadrupole moment (field-independent basis, Debye-Ang):
   XX=           -206.6407   YY=           -205.8778   ZZ=           -215.3870
   XY=              3.6421   XZ=             11.1567   YZ=              8.6225

 Normal termination of Gaussian 09 at Thu Feb 27 16:22:59 2020.
