                               Psi4 1.3.2 release

  ==> Input File <==

--------------------------------------------------------------------------
molecule {
0 1
 C   -1.158714    5.004657   -0.004949
 C   -2.465404    4.533686    0.183191
 C   -2.718643    3.147474    0.202186
 C   -1.582748    2.314901    0.045790
 N   -0.326943    2.743134   -0.134786
 C   -0.129001    4.069855   -0.161791
 C   -4.095857    2.552973    0.371600
 C   -5.277201    3.279808    0.590977
 C   -6.444174    2.517940    0.715293
 N   -6.490573    1.192122    0.623458
 C   -5.311406    0.576513    0.394892
 N   -4.140740    1.209669    0.274861
 N   -5.375309   -0.804451    0.279999
 C   -4.376580   -1.835846    0.140238
 C   -4.719595   -3.190014    0.436524
 C   -3.709617   -4.155262    0.284940
 C   -2.403195   -3.861430   -0.122734
 C   -2.081332   -2.530590   -0.408874
 C   -3.074335   -1.545253   -0.284042
 N   -0.795370   -2.042511   -0.815562
 C    0.431411   -2.660795   -0.881053
 C    1.680581   -1.843781   -1.175748
 C    2.879226   -2.559048   -1.355410
 C    4.074661   -1.893820   -1.636743
 C    4.126333   -0.491848   -1.742508
 C    2.921745    0.214732   -1.572022
 C    1.720929   -0.443113   -1.297058
 C    5.442326    0.239136   -2.011499
 N    6.275261    0.658547   -0.869944
 C    6.965713   -0.381236   -0.073737
 C    6.214637   -0.831136    1.205354
 N    5.803600    0.277515    2.096911
 C    6.829131    0.796995    3.009438
 C    5.057829    1.279698    1.299273
 C    5.785617    1.744542    0.010498
 O    0.536890   -3.868550   -0.723936
 C   -6.098145   -3.621695    0.907139
 H   -0.943008    6.068744   -0.031424
 H   -3.263379    5.263628    0.294329
 H   -1.694143    1.237430    0.087959
 H    0.899739    4.394254   -0.310360
 H   -5.320713    4.358844    0.675271
 H   -7.401382    3.005794    0.896682
 H   -6.323977   -1.111241    0.434877
 H   -3.933306   -5.198211    0.506156
 H   -1.649879   -4.634660   -0.207817
 H   -2.840153   -0.518013   -0.510501
 H   -0.793104   -1.062477   -1.054098
 H    2.856726   -3.642673   -1.267982
 H    4.983333   -2.482958   -1.759238
 H    2.915402    1.302933   -1.635439
 H    0.823536    0.150092   -1.142774
 H    6.070463   -0.400412   -2.648793
 H    5.222111    1.143613   -2.596769
 H    7.243405   -1.221434   -0.699484
 H    8.309970    0.258648    0.439653
 H    7.036236   -1.709542    1.921069
 H    5.068493   -1.515409    0.838521
 H    7.646708    1.270967    2.454549
 H    7.240052   -0.016423    3.618342
 H    6.389821    1.535431    3.690077
 H    4.788389    2.202768    1.985219
 H    3.807614    0.654798    0.902898
 H    7.058025    2.528998    0.517563
 H    5.184199    2.458907   -0.560342
 H   -6.863149   -3.422019    0.143549
 H   -6.396173   -3.088652    1.821078
 H   -6.156570   -4.694357    1.138169
}
memory 20GB
set_num_threads(6)
psi4_io.set_default_path("/scratch/bdw2292")
set freeze_core True
E, wfn = energy('mp2/6-311++G**',return_wfn=True)
oeprop(wfn,"WIBERG_LOWDIN_INDICES")
clean()
--------------------------------------------------------------------------

    Molecular point group: c1

    Geometry (in Angstrom), charge = 0, multiplicity = 1:

       Center              X                  Y                   Z               Mass
    ------------   -----------------  -----------------  -----------------  -----------------
         C           -1.077538127109     5.021509318748     0.032298461463    12.000000000000
         C           -2.384228127109     4.550538318748     0.220438461463    12.000000000000
         C           -2.637467127109     3.164326318748     0.239433461463    12.000000000000
         C           -1.501572127109     2.331753318748     0.083037461463    12.000000000000
         N           -0.245767127109     2.759986318748    -0.097538538537    14.003074004430
         C           -0.047825127109     4.086707318748    -0.124543538537    12.000000000000
         C           -4.014681127109     2.569825318748     0.408847461463    12.000000000000
         C           -5.196025127109     3.296660318748     0.628224461463    12.000000000000
         C           -6.362998127109     2.534792318748     0.752540461463    12.000000000000
         N           -6.409397127109     1.208974318748     0.660705461463    14.003074004430
         C           -5.230230127109     0.593365318748     0.432139461463    12.000000000000
         N           -4.059564127109     1.226521318748     0.312108461463    14.003074004430
         N           -5.294133127109    -0.787598681252     0.317246461463    14.003074004430
         C           -4.295404127109    -1.818993681252     0.177485461463    12.000000000000
         C           -4.638419127109    -3.173161681252     0.473771461463    12.000000000000
         C           -3.628441127109    -4.138409681252     0.322187461463    12.000000000000
         C           -2.322019127109    -3.844577681252    -0.085486538537    12.000000000000
         C           -2.000156127109    -2.513737681252    -0.371626538537    12.000000000000
         C           -2.993159127109    -1.528400681252    -0.246794538537    12.000000000000
         N           -0.714194127109    -2.025658681252    -0.778314538537    14.003074004430
         C            0.512586872891    -2.643942681252    -0.843805538537    12.000000000000
         C            1.761756872891    -1.826928681252    -1.138500538537    12.000000000000
         C            2.960401872891    -2.542195681252    -1.318162538537    12.000000000000
         C            4.155836872891    -1.876967681252    -1.599495538537    12.000000000000
         C            4.207508872891    -0.474995681252    -1.705260538537    12.000000000000
         C            3.002920872891     0.231584318748    -1.534774538537    12.000000000000
         C            1.802104872891    -0.426260681252    -1.259810538537    12.000000000000
         C            5.523501872891     0.255988318748    -1.974251538537    12.000000000000
         N            6.356436872891     0.675399318748    -0.832696538537    14.003074004430
         C            7.046888872891    -0.364383681252    -0.036489538537    12.000000000000
         C            6.295812872891    -0.814283681252     1.242601461463    12.000000000000
         N            5.884775872891     0.294367318748     2.134158461463    14.003074004430
         C            6.910306872891     0.813847318748     3.046685461463    12.000000000000
         C            5.139004872891     1.296550318748     1.336520461463    12.000000000000
         C            5.866792872891     1.761394318748     0.047745461463    12.000000000000
         O            0.618065872891    -3.851697681252    -0.686688538537    15.994914619570
         C           -6.016969127109    -3.604842681252     0.944386461463    12.000000000000
         H           -0.861832127109     6.085596318748     0.005823461463     1.007825032230
         H           -3.182203127109     5.280480318748     0.331576461463     1.007825032230
         H           -1.612967127109     1.254282318748     0.125206461463     1.007825032230
         H            0.980914872891     4.411106318748    -0.273112538537     1.007825032230
         H           -5.239537127109     4.375696318748     0.712518461463     1.007825032230
         H           -7.320206127109     3.022646318748     0.933929461463     1.007825032230
         H           -6.242801127109    -1.094388681252     0.472124461463     1.007825032230
         H           -3.852130127109    -5.181358681252     0.543403461463     1.007825032230
         H           -1.568703127109    -4.617807681252    -0.170569538537     1.007825032230
         H           -2.758977127109    -0.501160681252    -0.473253538537     1.007825032230
         H           -0.711928127109    -1.045624681252    -1.016850538537     1.007825032230
         H            2.937901872891    -3.625820681252    -1.230734538537     1.007825032230
         H            5.064508872891    -2.466105681252    -1.721990538537     1.007825032230
         H            2.996577872891     1.319785318748    -1.598191538537     1.007825032230
         H            0.904711872891     0.166944318748    -1.105526538537     1.007825032230
         H            6.151638872891    -0.383559681252    -2.611545538537     1.007825032230
         H            5.303286872891     1.160465318748    -2.559521538537     1.007825032230
         H            7.324580872891    -1.204581681252    -0.662236538537     1.007825032230
         H            8.391145872891     0.275500318748     0.476900461463     1.007825032230
         H            7.117411872891    -1.692689681252     1.958316461463     1.007825032230
         H            5.149668872891    -1.498556681252     0.875768461463     1.007825032230
         H            7.727883872891     1.287819318748     2.491796461463     1.007825032230
         H            7.321227872891     0.000429318748     3.655589461463     1.007825032230
         H            6.470996872891     1.552283318748     3.727324461463     1.007825032230
         H            4.869564872891     2.219620318748     2.022466461463     1.007825032230
         H            3.888789872891     0.671650318748     0.940145461463     1.007825032230
         H            7.139200872891     2.545850318748     0.554810461463     1.007825032230
         H            5.265374872891     2.475759318748    -0.523094538537     1.007825032230
         H           -6.781973127109    -3.405166681252     0.180796461463     1.007825032230
         H           -6.314997127109    -3.071799681252     1.858325461463     1.007825032230
         H           -6.075394127109    -4.677504681252     1.175416461463     1.007825032230

  Charge       = 0
  Multiplicity = 1
  Basis Set: 6-311++G**
    Blend: 6-311++G**
  Basis Set: (6-311++G** AUX)
    Blend: AUG-CC-PVTZ-JKFIT

    Orbital Energies [Eh]
    ---------------------

    Doubly Occupied:

       1A    -20.518935     2A    -15.603890     3A    -15.602373
       4A    -15.588051     5A    -15.574603     6A    -15.572729
       7A    -15.569966     8A    -15.554710     9A    -11.375971
      10A    -11.365697    11A    -11.335165    12A    -11.314486
      13A    -11.313180    14A    -11.309248    15A    -11.306344
      16A    -11.302076    17A    -11.301398    18A    -11.301358
      19A    -11.301179    20A    -11.293667    21A    -11.290077
      22A    -11.281205    23A    -11.281087    24A    -11.266328
      25A    -11.259540    26A    -11.259128    27A    -11.257492
      28A    -11.252904    29A    -11.249320    30A    -11.247196
      31A    -11.247132    32A    -11.245431    33A    -11.243836
      34A    -11.239496    35A    -11.235402    36A    -11.231385
      37A    -11.224488    38A     -1.386770    39A     -1.344796
      40A     -1.279360    41A     -1.250231    42A     -1.245887
      43A     -1.241021    44A     -1.210162    45A     -1.200087
      46A     -1.162482    47A     -1.139680    48A     -1.116453
      49A     -1.075813    50A     -1.059878    51A     -1.049149
      52A     -1.038387    53A     -1.024574    54A     -1.007845
      55A     -0.997167    56A     -0.977104    57A     -0.945951
      58A     -0.927481    59A     -0.926861    60A     -0.901271
      61A     -0.873279    62A     -0.866856    63A     -0.858471
      64A     -0.843616    65A     -0.839896    66A     -0.831242
      67A     -0.825214    68A     -0.806654    69A     -0.778791
      70A     -0.754934    71A     -0.741535    72A     -0.731925
      73A     -0.722630    74A     -0.700262    75A     -0.697647
      76A     -0.683645    77A     -0.678736    78A     -0.668497
      79A     -0.659996    80A     -0.657054    81A     -0.651959
      82A     -0.645792    83A     -0.636336    84A     -0.630920
      85A     -0.623279    86A     -0.617887    87A     -0.612172
      88A     -0.607599    89A     -0.602844    90A     -0.602389
      91A     -0.600685    92A     -0.596990    93A     -0.594867
      94A     -0.593100    95A     -0.589108    96A     -0.581148
      97A     -0.579279    98A     -0.573382    99A     -0.564435
     100A     -0.562214   101A     -0.547964   102A     -0.544933
     103A     -0.538737   104A     -0.526015   105A     -0.524769
     106A     -0.522369   107A     -0.513452   108A     -0.510056
     109A     -0.506498   110A     -0.501248   111A     -0.497921
     112A     -0.492882   113A     -0.485497   114A     -0.481179
     115A     -0.459604   116A     -0.452657   117A     -0.443619
     118A     -0.428348   119A     -0.426908   120A     -0.424270
     121A     -0.415341   122A     -0.400953   123A     -0.389306
     124A     -0.379581   125A     -0.374150   126A     -0.347958
     127A     -0.346378   128A     -0.341476   129A     -0.315024
     130A     -0.309946   131A     -0.289978

  @DF-RHF Final Energy: -1572.32262197378918

   => Energetics <=

    Nuclear Repulsion Energy =           3702.8968985827532379
    One-Electron Energy =               -9503.9367403944706894
    Two-Electron Energy =                4228.7172198379284964
    Total Energy =                      -1572.3226219737889551

  Dipole Moment: [D]
     X:    -2.8895      Y:     6.5427      Z:    -0.3487     Total:     7.1608

  Basis Set: (6-311++G** AUX)
    Blend: AUG-CC-PVTZ-RI
	 Reference Energy          =   -1572.3226219737891824 [Eh]
	 Singles Energy            =      -0.0000000000000000 [Eh]
	 Same-Spin Energy          =      -1.4704768740413581 [Eh]
	 Opposite-Spin Energy      =      -4.0482770735554325 [Eh]
	 Correlation Energy        =      -5.5187539475967906 [Eh]
	 Total Energy              =   -1577.8413759213858611 [Eh]

	 ================> DF-SCS-MP2 Energies <==================
	-----------------------------------------------------------
	 SCS Same-Spin Scale       =       0.3333333333333333 [-]
	 SCS Opposite-Spin Scale   =       1.2000000000000000 [-]
	 SCS Same-Spin Energy      =      -0.4901589580137860 [Eh]
	 SCS Opposite-Spin Energy  =      -4.8579324882665187 [Eh]
	 SCS Correlation Energy    =      -5.3480914462803044 [Eh]
	 SCS Total Energy          =   -1577.6707134200694327 [Eh]
	-----------------------------------------------------------

*** Psi4 exiting successfully. Buy a developer a beer!
