 Gaussian 09, Revision A.02,
 Gaussian 09:  EM64L-G09RevA.02 11-Jun-2009

 --------------------------------------------------
 #P opt=(,maxcycle=400) wB97XD/6-31G* MaxDisk=100GB
 --------------------------------------------------

 --------------------------------------------------------------
 MOLECULE0 Rotatable Bond Optimization on node37.bme.utexas.edu
 --------------------------------------------------------------
 Symbolic Z-matrix:
 Charge =  0 Multiplicity = 1

 SCF Done:  E(RwB97XD) =  -1581.51649082     A.U. after   16 cycles
 SCF Done:  E(RwB97XD) =  -1581.57556177     A.U. after   13 cycles
 SCF Done:  E(RwB97XD) =  -1581.67433785     A.U. after   14 cycles
 SCF Done:  E(RwB97XD) =  -1581.72727346     A.U. after   14 cycles
 SCF Done:  E(RwB97XD) =  -1581.74676155     A.U. after   14 cycles
 SCF Done:  E(RwB97XD) =  -1581.75056155     A.U. after   14 cycles
 SCF Done:  E(RwB97XD) =  -1581.75349935     A.U. after   17 cycles
 SCF Done:  E(RwB97XD) =  -1581.75453932     A.U. after   14 cycles
 SCF Done:  E(RwB97XD) =  -1581.75540892     A.U. after   14 cycles
 SCF Done:  E(RwB97XD) =  -1581.74577574     A.U. after   17 cycles
 SCF Done:  E(RwB97XD) =  -1581.76399662     A.U. after   12 cycles
 SCF Done:  E(RwB97XD) =  -1581.76401720     A.U. after   12 cycles
 SCF Done:  E(RwB97XD) =  -1581.76403095     A.U. after   11 cycles
 SCF Done:  E(RwB97XD) =  -1581.76403507     A.U. after   10 cycles
 SCF Done:  E(RwB97XD) =  -1581.76403637     A.U. after    8 cycles
 SCF Done:  E(RwB97XD) =  -1581.76403687     A.U. after    8 cycles
 SCF Done:  E(RwB97XD) =  -1581.76403704     A.U. after    7 cycles
 SCF Done:  E(RwB97XD) =  -1581.76403709     A.U. after    7 cycles
 SCF Done:  E(RwB97XD) =  -1581.76403711     A.U. after    6 cycles
 SCF Done:  E(RwB97XD) =  -1581.76403714     A.U. after    6 cycles
 Optimization completed.
    -- Stationary point found.

                         Standard orientation:
 ---------------------------------------------------------------------
 Center     Atomic      Atomic             Coordinates (Angstroms)
 Number     Number       Type             X           Y           Z
 ---------------------------------------------------------------------
      1          6           0        0.604393    4.168190   -0.065238
      2          6           0       -0.774260    4.156421    0.105275
      3          6           0       -1.477168    2.981938   -0.160794
      4          6           0       -0.737210    1.874172   -0.598013
      5          7           0        0.584074    1.868535   -0.753858
      6          6           0        1.241415    3.003811   -0.487193
      7          6           0       -2.941403    2.846473    0.030516
      8          6           0       -3.831321    3.917682    0.087680
      9          6           0       -5.169854    3.593820    0.298384
     10          7           0       -5.621386    2.351037    0.421657
     11          6           0       -4.681154    1.391349    0.325992
     12          7           0       -3.376954    1.590655    0.154740
     13          7           0       -5.149162    0.106978    0.420015
     14          6           0       -4.459472   -1.101551    0.203189
     15          6           0       -5.191776   -2.224671   -0.227406
     16          6           0       -4.488606   -3.402779   -0.462927
     17          6           0       -3.108614   -3.510840   -0.312098
     18          6           0       -2.405821   -2.389943    0.124541
     19          6           0       -3.087467   -1.207358    0.410158
     20          7           0       -1.010134   -2.349476    0.313696
     21          6           0       -0.062900   -3.225551   -0.153004
     22          6           0        1.349815   -2.802235    0.136901
     23          6           0        1.710201   -2.092314    1.285364
     24          6           0        3.037712   -1.748862    1.508332
     25          6           0        4.031100   -2.084785    0.586852
     26          6           0        3.662046   -2.805155   -0.551434
     27          6           0        2.340244   -3.169648   -0.772955
     28          6           0        5.483803   -1.696633    0.820813
     29          7           0        5.911616   -0.364425    0.434750
     30          6           0        5.562199    0.752957    1.301212
     31          6           0        4.310389    1.524503    0.854145
     32          7           0        4.364866    1.922845   -0.551105
     33          6           0        5.285351    3.014741   -0.821448
     34          6           0        4.583899    0.738800   -1.382091
     35          6           0        5.850809   -0.034645   -0.983655
     36          8           0       -0.316171   -4.250936   -0.762941
     37          6           0       -6.681708   -2.151433   -0.444535
     38          1           0        1.182296    5.063532    0.139686
     39          1           0       -1.288967    5.043105    0.465129
     40          1           0       -1.258509    0.950816   -0.836416
     41          1           0        2.323116    2.950597   -0.614069
     42          1           0       -3.519323    4.947240   -0.036300
     43          1           0       -5.920843    4.378498    0.365160
     44          1           0       -6.155248    0.063629    0.481352
     45          1           0       -5.041014   -4.275842   -0.801077
     46          1           0       -2.589048   -4.429892   -0.542351
     47          1           0       -2.541767   -0.342137    0.757705
     48          1           0       -0.657663   -1.456596    0.627740
     49          1           0        0.963994   -1.844361    2.035696
     50          1           0        3.308161   -1.223649    2.421663
     51          1           0        4.425240   -3.097907   -1.268893
     52          1           0        2.057818   -3.747888   -1.646721
     53          1           0        5.715221   -1.816395    1.886094
     54          1           0        6.119933   -2.411384    0.282705
     55          1           0        5.432253    0.381001    2.323597
     56          1           0        6.415658    1.447654    1.326093
     57          1           0        4.180013    2.422070    1.471624
     58          1           0        3.416311    0.902213    0.979177
     59          1           0        6.347477    2.804847   -0.611037
     60          1           0        4.993764    3.883539   -0.220138
     61          1           0        5.203641    3.293229   -1.877559
     62          1           0        4.645335    1.050094   -2.431610
     63          1           0        3.701210    0.096936   -1.277505
     64          1           0        6.736257    0.567568   -1.237580
     65          1           0        5.924442   -0.960196   -1.564849
     66          1           0       -6.950351   -1.370786   -1.167292
     67          1           0       -7.226452   -1.943595    0.486650
     68          1           0       -7.061895   -3.100227   -0.831768
 ---------------------------------------------------------------------

 The electronic state is 1-A.
 Alpha  occ. eigenvalues --  -19.23556 -14.48721 -14.48568 -14.45460 -14.44976
 Alpha  occ. eigenvalues --  -14.44766 -14.44137 -14.43887 -10.41116 -10.40304
 Alpha  occ. eigenvalues --  -10.36857 -10.35717 -10.34349 -10.33983 -10.33482
 Alpha  occ. eigenvalues --  -10.32916 -10.32837 -10.32722 -10.32242 -10.31837
 Alpha  occ. eigenvalues --  -10.31575 -10.31414 -10.31339 -10.31310 -10.31297
 Alpha  occ. eigenvalues --  -10.31274 -10.31169 -10.31106 -10.30973 -10.30727
 Alpha  occ. eigenvalues --  -10.30583 -10.30492 -10.30243 -10.29845 -10.29421
 Alpha  occ. eigenvalues --  -10.28842 -10.28340  -1.13695  -1.11703  -1.04647
 Alpha  occ. eigenvalues --   -1.04394  -1.04049  -1.03464  -1.00138  -1.00023
 Alpha  occ. eigenvalues --   -0.96429  -0.94465  -0.91892  -0.88887  -0.88039
 Alpha  occ. eigenvalues --   -0.86392  -0.86119  -0.85845  -0.85004  -0.83467
 Alpha  occ. eigenvalues --   -0.82347  -0.79696  -0.78120  -0.77203  -0.75695
 Alpha  occ. eigenvalues --   -0.73775  -0.73098  -0.72604  -0.71673  -0.71038
 Alpha  occ. eigenvalues --   -0.70627  -0.69356  -0.68046  -0.66243  -0.64617
 Alpha  occ. eigenvalues --   -0.64071  -0.62983  -0.62089  -0.60746  -0.59869
 Alpha  occ. eigenvalues --   -0.58435  -0.57890  -0.56934  -0.56375  -0.55760
 Alpha  occ. eigenvalues --   -0.55570  -0.55417  -0.54931  -0.54690  -0.54306
 Alpha  occ. eigenvalues --   -0.54048  -0.53542  -0.53294  -0.52910  -0.52323
 Alpha  occ. eigenvalues --   -0.51326  -0.51263  -0.50941  -0.50650  -0.50494
 Alpha  occ. eigenvalues --   -0.50267  -0.49625  -0.49165  -0.48818  -0.48575
 Alpha  occ. eigenvalues --   -0.47282  -0.47189  -0.46797  -0.46459  -0.45868
 Alpha  occ. eigenvalues --   -0.45413  -0.45208  -0.44747  -0.44207  -0.43766
 Alpha  occ. eigenvalues --   -0.43346  -0.42640  -0.42508  -0.41969  -0.41446
 Alpha  occ. eigenvalues --   -0.41368  -0.40931  -0.39491  -0.37746  -0.36534
 Alpha  occ. eigenvalues --   -0.34520  -0.34376  -0.33745  -0.33306  -0.32953
 Alpha  occ. eigenvalues --   -0.32254  -0.32165  -0.31175  -0.28988  -0.27017
 Alpha  occ. eigenvalues --   -0.25578
 Alpha virt. eigenvalues --    0.00605   0.03183   0.04123   0.05507   0.06078
 Alpha virt. eigenvalues --    0.08110   0.08593   0.10657   0.14270   0.15048
 Alpha virt. eigenvalues --    0.16203   0.16663   0.16932   0.18004   0.18857

 Mulliken atomic charges:
              1
     1  C   -0.201455
     2  C   -0.158948
     3  C    0.030057
     4  C   -0.001198
     5  N   -0.435059
     6  C    0.012247
     7  C    0.296486
     8  C   -0.253076
     9  C    0.046126
    10  N   -0.493809
    11  C    0.700640
    12  N   -0.566113
    13  N   -0.790123
    14  C    0.284668
    15  C    0.122441
    16  C   -0.240673
    17  C   -0.186875
    18  C    0.351635
    19  C   -0.258304
    20  N   -0.762727
    21  C    0.589040
    22  C    0.019439
    23  C   -0.202551
    24  C   -0.216598
    25  C    0.158288
    26  C   -0.222863
    27  C   -0.174029
    28  C   -0.267473
    29  N   -0.382147
    30  C   -0.181592
    31  C   -0.184476
    32  N   -0.393826
    33  C   -0.352083
    34  C   -0.184057
    35  C   -0.186853
    36  O   -0.511661
    37  C   -0.604380
    38  H    0.175088
    39  H    0.178087
    40  H    0.197061
    41  H    0.218946
    42  H    0.178677
    43  H    0.186357
    44  H    0.366468
    45  H    0.160428
    46  H    0.212442
    47  H    0.191906
    48  H    0.363599
    49  H    0.174375
    50  H    0.162880
    51  H    0.165265
    52  H    0.199352
    53  H    0.171339
    54  H    0.170826
    55  H    0.154204
    56  H    0.159389
    57  H    0.150154
    58  H    0.175556
    59  H    0.144170
    60  H    0.162076
    61  H    0.171643
    62  H    0.156984
    63  H    0.187076
    64  H    0.159177
    65  H    0.158446
    66  H    0.184450
    67  H    0.176597
    68  H    0.188863
 Sum of Mulliken atomic charges =   0.00000

 Dipole moment (field-independent basis, Debye):
    X=              0.9895    Y=              5.3058    Z=              1.5258  Tot=              5.6088
 Quadrupole moment (field-independent basis, Debye-Ang):
   XX=           -192.0714   YY=           -207.5130   ZZ=           -213.4596
   XY=              0.0224   XZ=              0.3699   YZ=              1.6118

 Normal termination of Gaussian 09 at Tue Mar  3 17:39:03 2020.
