 Gaussian 09, Revision A.02,
 Gaussian 09:  EM64L-G09RevA.02 11-Jun-2009

 --------------------------------------------------
 #P opt=(,maxcycle=400) wB97XD/6-31G* MaxDisk=100GB
 --------------------------------------------------

 --------------------------------------------------------------
 MOLECULE0 Rotatable Bond Optimization on node37.bme.utexas.edu
 --------------------------------------------------------------
 Symbolic Z-matrix:
 Charge =  0 Multiplicity = 1

 SCF Done:  E(RwB97XD) =  -1581.51998832     A.U. after   16 cycles
 SCF Done:  E(RwB97XD) =  -1581.57867036     A.U. after   14 cycles
 SCF Done:  E(RwB97XD) =  -1581.67695708     A.U. after   14 cycles
 SCF Done:  E(RwB97XD) =  -1581.72877684     A.U. after   17 cycles
 SCF Done:  E(RwB97XD) =  -1581.74712785     A.U. after   17 cycles
 SCF Done:  E(RwB97XD) =  -1581.75063529     A.U. after   17 cycles
 SCF Done:  E(RwB97XD) =  -1581.75331229     A.U. after   14 cycles
 SCF Done:  E(RwB97XD) =  -1581.75380971     A.U. after   17 cycles
 SCF Done:  E(RwB97XD) =  -1581.75399964     A.U. after   14 cycles
 SCF Done:  E(RwB97XD) =  -1581.75465633     A.U. after   14 cycles
 SCF Done:  E(RwB97XD) =  -1581.75582372     A.U. after   13 cycles
 SCF Done:  E(RwB97XD) =  -1581.75587958     A.U. after   17 cycles
 SCF Done:  E(RwB97XD) =  -1581.75589588     A.U. after   13 cycles
 SCF Done:  E(RwB97XD) =  -1581.75590386     A.U. after   11 cycles
 SCF Done:  E(RwB97XD) =  -1581.75590606     A.U. after   10 cycles
 SCF Done:  E(RwB97XD) =  -1581.75590830     A.U. after    9 cycles
 SCF Done:  E(RwB97XD) =  -1581.75590901     A.U. after    8 cycles
 SCF Done:  E(RwB97XD) =  -1581.75590932     A.U. after    8 cycles
 SCF Done:  E(RwB97XD) =  -1581.75590942     A.U. after    7 cycles
 SCF Done:  E(RwB97XD) =  -1581.75590943     A.U. after    7 cycles
 Optimization completed.
    -- Stationary point found.

                         Standard orientation:
 ---------------------------------------------------------------------
 Center     Atomic      Atomic             Coordinates (Angstroms)
 Number     Number       Type             X           Y           Z
 ---------------------------------------------------------------------
      1          6           0        8.515437   -0.753031   -2.312401
      2          6           0        7.904714    0.348709   -1.729492
      3          6           0        6.627426    0.209146   -1.185470
      4          6           0        6.032409   -1.057628   -1.253184
      5          7           0        6.607133   -2.122988   -1.809418
      6          6           0        7.826717   -1.961632   -2.328111
      7          6           0        5.899711    1.333530   -0.546013
      8          6           0        6.268678    2.669742   -0.709351
      9          6           0        5.493354    3.611088   -0.041792
     10          7           0        4.448739    3.300020    0.715866
     11          6           0        4.172432    1.984981    0.792337
     12          7           0        4.843142    0.996251    0.198728
     13          7           0        3.092545    1.658346    1.564763
     14          6           0        2.490134    0.373590    1.630743
     15          6           0        3.144038   -0.707966    2.236825
     16          6           0        2.453955   -1.919544    2.278640
     17          6           0        1.168272   -2.080370    1.776352
     18          6           0        0.526443   -0.984865    1.195871
     19          6           0        1.202130    0.233623    1.122530
     20          7           0       -0.767799   -1.037678    0.643379
     21          6           0       -1.690662   -2.051257    0.721987
     22          6           0       -2.979004   -1.767562    0.003502
     23          6           0       -3.056186   -0.980826   -1.148398
     24          6           0       -4.282890   -0.761306   -1.763967
     25          6           0       -5.457620   -1.302552   -1.239691
     26          6           0       -5.363485   -2.121958   -0.112066
     27          6           0       -4.140961   -2.357941    0.501656
     28          6           0       -6.809790   -0.989587   -1.864160
     29          7           0       -7.512381    0.197817   -1.407644
     30          6           0       -6.987410    1.495304   -1.816132
     31          6           0       -6.025279    2.127268   -0.795555
     32          7           0       -6.576941    2.180015    0.555290
     33          6           0       -7.585320    3.208973    0.738980
     34          6           0       -7.012123    0.846900    0.965045
     35          6           0       -7.992061    0.202075   -0.030274
     36          8           0       -1.514734   -3.093292    1.330797
     37          6           0        4.518555   -0.579503    2.831551
     38          1           0        9.508961   -0.679997   -2.741963
     39          1           0        8.429333    1.298340   -1.685182
     40          1           0        5.041358   -1.199416   -0.830985
     41          1           0        8.276153   -2.845879   -2.774898
     42          1           0        7.095608    2.978106   -1.335953
     43          1           0        5.720257    4.672200   -0.126055
     44          1           0        2.537641    2.455579    1.840400
     45          1           0        2.937036   -2.776187    2.741433
     46          1           0        0.659344   -3.030908    1.845403
     47          1           0        0.731011    1.093742    0.650954
     48          1           0       -1.097200   -0.171932    0.243424
     49          1           0       -2.155746   -0.569196   -1.597597
     50          1           0       -4.328353   -0.158570   -2.668233
     51          1           0       -6.263656   -2.578074    0.293400
     52          1           0       -4.065915   -3.002225    1.371560
     53          1           0       -6.684944   -0.893608   -2.949730
     54          1           0       -7.477496   -1.844609   -1.699182
     55          1           0       -6.494543    1.387578   -2.789207
     56          1           0       -7.841011    2.172534   -1.968063
     57          1           0       -5.762437    3.145053   -1.109171
     58          1           0       -5.097414    1.544846   -0.751546
     59          1           0       -8.506133    3.086378    0.142179
     60          1           0       -7.151920    4.182423    0.484960
     61          1           0       -7.876234    3.238442    1.794735
     62          1           0       -7.475617    0.916828    1.956421
     63          1           0       -6.117514    0.220745    1.061900
     64          1           0       -8.944344    0.752311   -0.005387
     65          1           0       -8.216213   -0.827989    0.269325
     66          1           0        4.651929    0.398788    3.304482
     67          1           0        5.286078   -0.670868    2.055784
     68          1           0        4.689103   -1.355001    3.583890
 ---------------------------------------------------------------------

 The electronic state is 1-A.
 Alpha  occ. eigenvalues --  -19.24202 -14.49457 -14.47987 -14.45089 -14.44938
 Alpha  occ. eigenvalues --  -14.44868 -14.44067 -14.43495 -10.41026 -10.40719
 Alpha  occ. eigenvalues --  -10.36658 -10.35417 -10.34758 -10.34064 -10.33887
 Alpha  occ. eigenvalues --  -10.33415 -10.32979 -10.32882 -10.32261 -10.32016
 Alpha  occ. eigenvalues --  -10.31937 -10.31743 -10.31634 -10.31615 -10.31550
 Alpha  occ. eigenvalues --  -10.31275 -10.31154 -10.31121 -10.31010 -10.30975
 Alpha  occ. eigenvalues --  -10.30938 -10.30854 -10.30419 -10.30305 -10.29546
 Alpha  occ. eigenvalues --  -10.29045 -10.28099  -1.14402  -1.11337  -1.04798
 Alpha  occ. eigenvalues --   -1.04573  -1.04274  -1.03282  -0.99996  -0.99769
 Alpha  occ. eigenvalues --   -0.96991  -0.94706  -0.91955  -0.88813  -0.88433
 Alpha  occ. eigenvalues --   -0.86444  -0.86302  -0.85942  -0.85391  -0.83601
 Alpha  occ. eigenvalues --   -0.82313  -0.79435  -0.77930  -0.77162  -0.75301
 Alpha  occ. eigenvalues --   -0.73697  -0.73259  -0.72592  -0.71488  -0.71200
 Alpha  occ. eigenvalues --   -0.71058  -0.70387  -0.68237  -0.66363  -0.64676
 Alpha  occ. eigenvalues --   -0.64147  -0.63691  -0.62371  -0.60954  -0.59679
 Alpha  occ. eigenvalues --   -0.58670  -0.57753  -0.57248  -0.56358  -0.56254
 Alpha  occ. eigenvalues --   -0.55484  -0.55383  -0.55195  -0.54806  -0.54400
 Alpha  occ. eigenvalues --   -0.53999  -0.53783  -0.53143  -0.53107  -0.52736
 Alpha  occ. eigenvalues --   -0.51725  -0.51410  -0.51047  -0.50851  -0.50525
 Alpha  occ. eigenvalues --   -0.50115  -0.49621  -0.49179  -0.48966  -0.48801
 Alpha  occ. eigenvalues --   -0.47155  -0.46926  -0.46717  -0.46485  -0.45694
 Alpha  occ. eigenvalues --   -0.45283  -0.45055  -0.44961  -0.44304  -0.43870
 Alpha  occ. eigenvalues --   -0.43036  -0.42966  -0.42054  -0.42003  -0.41391
 Alpha  occ. eigenvalues --   -0.41367  -0.40537  -0.39723  -0.37892  -0.36577
 Alpha  occ. eigenvalues --   -0.34405  -0.34341  -0.33875  -0.33855  -0.32879
 Alpha  occ. eigenvalues --   -0.32694  -0.32258  -0.31267  -0.29714  -0.28105
 Alpha  occ. eigenvalues --   -0.25404
 Alpha virt. eigenvalues --    0.00637   0.02527   0.04278   0.05489   0.05901
 Alpha virt. eigenvalues --    0.07529   0.08051   0.09835   0.13830   0.15091
 Alpha virt. eigenvalues --    0.15878   0.16983   0.17108   0.18536   0.18751

 Mulliken atomic charges:
              1
     1  C   -0.196744
     2  C   -0.158548
     3  C    0.025407
     4  C    0.003983
     5  N   -0.421722
     6  C    0.024790
     7  C    0.289124
     8  C   -0.248280
     9  C    0.042323
    10  N   -0.490973
    11  C    0.667706
    12  N   -0.540948
    13  N   -0.760370
    14  C    0.248552
    15  C    0.163408
    16  C   -0.245047
    17  C   -0.182128
    18  C    0.354035
    19  C   -0.268640
    20  N   -0.767697
    21  C    0.597052
    22  C    0.016774
    23  C   -0.209584
    24  C   -0.219292
    25  C    0.159268
    26  C   -0.222198
    27  C   -0.175611
    28  C   -0.264188
    29  N   -0.380625
    30  C   -0.185018
    31  C   -0.181074
    32  N   -0.385735
    33  C   -0.350947
    34  C   -0.182277
    35  C   -0.186962
    36  O   -0.510296
    37  C   -0.571365
    38  H    0.179773
    39  H    0.179442
    40  H    0.213003
    41  H    0.179163
    42  H    0.175737
    43  H    0.183936
    44  H    0.361382
    45  H    0.167191
    46  H    0.220106
    47  H    0.156540
    48  H    0.355390
    49  H    0.173387
    50  H    0.166157
    51  H    0.168362
    52  H    0.202050
    53  H    0.171137
    54  H    0.172267
    55  H    0.151471
    56  H    0.161784
    57  H    0.152639
    58  H    0.162324
    59  H    0.136501
    60  H    0.167024
    61  H    0.168723
    62  H    0.155034
    63  H    0.169041
    64  H    0.161755
    65  H    0.154256
    66  H    0.178371
    67  H    0.199460
    68  H    0.170441
 Sum of Mulliken atomic charges =   0.00000

 Dipole moment (field-independent basis, Debye):
    X=              0.3060    Y=              4.3821    Z=             -2.2503  Tot=              4.9356
 Quadrupole moment (field-independent basis, Debye-Ang):
   XX=           -167.8757   YY=           -220.7032   ZZ=           -212.5583
   XY=              9.3726   XZ=             -8.2447   YZ=             -4.9607

 Normal termination of Gaussian 09 at Tue Mar  3 11:45:28 2020.
