                               Psi4 1.3.2 release

  ==> Input File <==

--------------------------------------------------------------------------
molecule {
0 1
 C    3.093234   -4.937286   -0.612655
 C    4.135552   -4.035671   -0.359877
 C    3.876976   -2.650306   -0.307475
 C    2.529426   -2.268523   -0.523042
 N    1.521988   -3.116684   -0.768347
 C    1.806546   -4.425668   -0.808630
 C    4.947592   -1.617821   -0.047184
 C    6.305455   -1.909370    0.168701
 C    7.140403   -0.807045    0.373431
 N    6.729509    0.456567    0.373417
 C    5.408718    0.645526    0.163998
 N    4.527630   -0.336164   -0.046653
 N    5.012708    1.974990    0.161306
 C    3.748014    2.650812    0.019979
 C    3.736999    4.075317   -0.084905
 C    2.483556    4.696056   -0.206112
 C    1.266777    4.004925   -0.228420
 C    1.292902    2.607812   -0.138611
 C    2.530958    1.960330   -0.006973
 N    0.123761    1.787538   -0.147448
 C   -0.203477    0.664046    0.577727
 C   -1.488336   -0.065621    0.235081
 C   -2.092788   -0.038158   -1.032622
 C   -3.283872   -0.729839   -1.265577
 C   -3.901304   -1.489689   -0.254321
 C   -3.265153   -1.540827    1.000413
 C   -2.072352   -0.855565    1.240149
 C   -5.222722   -2.220197   -0.498758
 N   -6.487186   -1.494482   -0.280056
 C   -6.880880   -0.437212   -1.238912
 C   -6.466000    0.998063   -0.823849
 N   -6.896777    1.390404    0.538067
 C   -8.278963    1.860953    0.682117
 C   -6.453015    0.346389    1.491264
 C   -6.851856   -1.100874    1.100896
 O    0.497479    0.252181    1.486816
 C    4.993761    4.929071   -0.067781
 H    3.271707   -6.007540   -0.657580
 H    5.133461   -4.440376   -0.210619
 H    2.249246   -1.222449   -0.496837
 H    0.965359   -5.087414   -1.007748
 H    6.719310   -2.910119    0.178614
 H    8.206786   -0.950505    0.545059
 H    5.822076    2.560269    0.303158
 H    2.435794    5.781975   -0.278803
 H    0.325635    4.535490   -0.310385
 H    2.550520    0.887774    0.100836
 H   -0.573426    2.165597   -0.773416
 H   -1.628365    0.525460   -1.837552
 H   -3.737089   -0.673138   -2.255366
 H   -3.704025   -2.121582    1.811426
 H   -1.586053   -0.905238    2.211298
 H   -5.235710   -2.581220   -1.537547
 H   -5.250653   -3.111613    0.144454
 H   -6.569442   -0.683361   -2.217694
 H   -8.462330   -0.417459   -1.265958
 H   -7.065956    1.933028   -1.795192
 H   -5.219471    1.123127   -0.881325
 H   -8.993679    1.057951    0.469566
 H   -8.468598    2.693026   -0.005360
 H   -8.449718    2.224583    1.701882
 H   -6.976852    0.631830    2.758604
 H   -5.031234    0.420199    1.568456
 H   -8.433035   -1.127255    1.178444
 H   -6.502494   -1.820168    1.803748
 H    5.701050    4.619757   -0.850235
 H    5.514981    4.854614    0.897133
 H    4.791154    5.995888   -0.235228
}
memory 20GB
set_num_threads(6)
psi4_io.set_default_path("/scratch/bdw2292")
set freeze_core True
E, wfn = energy('mp2/6-311++G**',return_wfn=True)
oeprop(wfn,"WIBERG_LOWDIN_INDICES")
clean()
--------------------------------------------------------------------------

    Molecular point group: c1

    Geometry (in Angstrom), charge = 0, multiplicity = 1:

       Center              X                  Y                   Z               Mass
    ------------   -----------------  -----------------  -----------------  -----------------
         C            2.977940591030    -4.939384086223    -0.618797910891    12.000000000000
         C            4.020258591030    -4.037769086223    -0.366019910891    12.000000000000
         C            3.761682591030    -2.652404086223    -0.313617910891    12.000000000000
         C            2.414132591030    -2.270621086223    -0.529184910891    12.000000000000
         N            1.406694591030    -3.118782086223    -0.774489910891    14.003074004430
         C            1.691252591030    -4.427766086223    -0.814772910891    12.000000000000
         C            4.832298591030    -1.619919086223    -0.053326910891    12.000000000000
         C            6.190161591030    -1.911468086223     0.162558089109    12.000000000000
         C            7.025109591030    -0.809143086223     0.367288089109    12.000000000000
         N            6.614215591030     0.454468913777     0.367274089109    14.003074004430
         C            5.293424591030     0.643427913777     0.157855089109    12.000000000000
         N            4.412336591030    -0.338262086223    -0.052795910891    14.003074004430
         N            4.897414591030     1.972891913777     0.155163089109    14.003074004430
         C            3.632720591030     2.648713913777     0.013836089109    12.000000000000
         C            3.621705591030     4.073218913777    -0.091047910891    12.000000000000
         C            2.368262591030     4.693957913777    -0.212254910891    12.000000000000
         C            1.151483591030     4.002826913777    -0.234562910891    12.000000000000
         C            1.177608591030     2.605713913777    -0.144753910891    12.000000000000
         C            2.415664591030     1.958231913777    -0.013115910891    12.000000000000
         N            0.008467591030     1.785439913777    -0.153590910891    14.003074004430
         C           -0.318770408970     0.661947913777     0.571584089109    12.000000000000
         C           -1.603629408970    -0.067719086223     0.228938089109    12.000000000000
         C           -2.208081408970    -0.040256086223    -1.038764910891    12.000000000000
         C           -3.399165408970    -0.731937086223    -1.271719910891    12.000000000000
         C           -4.016597408970    -1.491787086223    -0.260463910891    12.000000000000
         C           -3.380446408970    -1.542925086223     0.994270089109    12.000000000000
         C           -2.187645408970    -0.857663086223     1.234006089109    12.000000000000
         C           -5.338015408970    -2.222295086223    -0.504900910891    12.000000000000
         N           -6.602479408970    -1.496580086223    -0.286198910891    14.003074004430
         C           -6.996173408970    -0.439310086223    -1.245054910891    12.000000000000
         C           -6.581293408970     0.995964913777    -0.829991910891    12.000000000000
         N           -7.012070408970     1.388305913777     0.531924089109    14.003074004430
         C           -8.394256408970     1.858854913777     0.675974089109    12.000000000000
         C           -6.568308408970     0.344290913777     1.485121089109    12.000000000000
         C           -6.967149408970    -1.102972086223     1.094753089109    12.000000000000
         O            0.382185591030     0.250082913777     1.480673089109    15.994914619570
         C            4.878467591030     4.926972913777    -0.073923910891    12.000000000000
         H            3.156413591030    -6.009638086223    -0.663722910891     1.007825032230
         H            5.018167591030    -4.442474086223    -0.216761910891     1.007825032230
         H            2.133952591030    -1.224547086223    -0.502979910891     1.007825032230
         H            0.850065591030    -5.089512086223    -1.013890910891     1.007825032230
         H            6.604016591030    -2.912217086223     0.172471089109     1.007825032230
         H            8.091492591030    -0.952603086223     0.538916089109     1.007825032230
         H            5.706782591030     2.558170913777     0.297015089109     1.007825032230
         H            2.320500591030     5.779876913777    -0.284945910891     1.007825032230
         H            0.210341591030     4.533391913777    -0.316527910891     1.007825032230
         H            2.435226591030     0.885675913777     0.094693089109     1.007825032230
         H           -0.688719408970     2.163498913777    -0.779558910891     1.007825032230
         H           -1.743658408970     0.523361913777    -1.843694910891     1.007825032230
         H           -3.852382408970    -0.675236086223    -2.261508910891     1.007825032230
         H           -3.819318408970    -2.123680086223     1.805283089109     1.007825032230
         H           -1.701346408970    -0.907336086223     2.205155089109     1.007825032230
         H           -5.351003408970    -2.583318086223    -1.543689910891     1.007825032230
         H           -5.365946408970    -3.113711086223     0.138311089109     1.007825032230
         H           -6.684735408970    -0.685459086223    -2.223836910891     1.007825032230
         H           -8.577623408970    -0.419557086223    -1.272100910891     1.007825032230
         H           -7.181249408970     1.930929913777    -1.801334910891     1.007825032230
         H           -5.334764408970     1.121028913777    -0.887467910891     1.007825032230
         H           -9.108972408970     1.055852913777     0.463423089109     1.007825032230
         H           -8.583891408970     2.690927913777    -0.011502910891     1.007825032230
         H           -8.565011408970     2.222484913777     1.695739089109     1.007825032230
         H           -7.092145408970     0.629731913777     2.752461089109     1.007825032230
         H           -5.146527408970     0.418100913777     1.562313089109     1.007825032230
         H           -8.548328408970    -1.129353086223     1.172301089109     1.007825032230
         H           -6.617787408970    -1.822266086223     1.797605089109     1.007825032230
         H            5.585756591030     4.617658913777    -0.856377910891     1.007825032230
         H            5.399687591030     4.852515913777     0.890990089109     1.007825032230
         H            4.675860591030     5.993789913777    -0.241370910891     1.007825032230

  Charge       = 0
  Multiplicity = 1
  Basis Set: 6-311++G**
    Blend: 6-311++G**
  Basis Set: (6-311++G** AUX)
    Blend: AUG-CC-PVTZ-JKFIT

    Orbital Energies [Eh]
    ---------------------

    Doubly Occupied:

       1A    -20.520873     2A    -15.599490     3A    -15.597503
       4A    -15.575180     5A    -15.568192     6A    -15.564928
       7A    -15.560021     8A    -15.558502     9A    -11.367013
      10A    -11.366925    11A    -11.324170    12A    -11.321635
      13A    -11.314073    14A    -11.308120    15A    -11.306366
      16A    -11.304216    17A    -11.298273    18A    -11.289587
      19A    -11.285541    20A    -11.283479    21A    -11.282931
      22A    -11.275112    23A    -11.265031    24A    -11.261466
      25A    -11.261041    26A    -11.259876    27A    -11.251773
      28A    -11.251462    29A    -11.250503    30A    -11.249672
      31A    -11.248294    32A    -11.243636    33A    -11.242881
      34A    -11.242105    35A    -11.236397    36A    -11.236294
      37A    -11.224297    38A     -1.388138    39A     -1.335426
      40A     -1.261224    41A     -1.249449    42A     -1.249056
      43A     -1.235730    44A     -1.202919    45A     -1.199523
      46A     -1.165343    47A     -1.139087    48A     -1.102380
      49A     -1.066643    50A     -1.060157    51A     -1.039156
      52A     -1.034362    53A     -1.027903    54A     -1.006495
      55A     -1.000181    56A     -0.979935    57A     -0.945942
      58A     -0.928810    59A     -0.914093    60A     -0.894626
      61A     -0.869602    62A     -0.859787    63A     -0.847772
      64A     -0.844520    65A     -0.835443    66A     -0.832813
      67A     -0.820333    68A     -0.806541    69A     -0.782392
      70A     -0.750371    71A     -0.736155    72A     -0.726596
      73A     -0.712709    74A     -0.708387    75A     -0.690830
      76A     -0.682235    77A     -0.675031    78A     -0.662500
      79A     -0.656207    80A     -0.651588    81A     -0.650800
      82A     -0.646433    83A     -0.634424    84A     -0.633597
      85A     -0.622128    86A     -0.618689    87A     -0.610429
      88A     -0.608266    89A     -0.601768    90A     -0.597440
      91A     -0.595646    92A     -0.588943    93A     -0.585540
      94A     -0.582231    95A     -0.581382    96A     -0.581249
      97A     -0.575881    98A     -0.573461    99A     -0.558011
     100A     -0.549577   101A     -0.546181   102A     -0.543647
     103A     -0.532410   104A     -0.529482   105A     -0.524551
     106A     -0.518874   107A     -0.512594   108A     -0.509663
     109A     -0.508551   110A     -0.505611   111A     -0.501199
     112A     -0.497479   113A     -0.481206   114A     -0.474540
     115A     -0.441663   116A     -0.441220   117A     -0.432242
     118A     -0.425970   119A     -0.424139   120A     -0.420591
     121A     -0.402764   122A     -0.394542   123A     -0.386402
     124A     -0.383482   125A     -0.365586   126A     -0.349415
     127A     -0.344843   128A     -0.333938   129A     -0.315898
     130A     -0.312759   131A     -0.291324

  @DF-RHF Final Energy: -1572.29330987661251

   => Energetics <=

    Nuclear Repulsion Energy =           3699.6487951604353839
    One-Electron Energy =               -9498.2364102108858788
    Two-Electron Energy =                4226.2943051738375289
    Total Energy =                      -1572.2933098766125113

  Dipole Moment: [D]
     X:     1.6551      Y:    -1.4970      Z:    -2.2614     Total:     3.1772

  Basis Set: (6-311++G** AUX)
    Blend: AUG-CC-PVTZ-RI
	 Reference Energy          =   -1572.2933098766125113 [Eh]
	 Singles Energy            =      -0.0000000000000000 [Eh]
	 Same-Spin Energy          =      -1.4712805428840938 [Eh]
	 Opposite-Spin Energy      =      -4.0514156967881823 [Eh]
	 Correlation Energy        =      -5.5226962396722765 [Eh]
	 Total Energy              =   -1577.8160061162848251 [Eh]

	 ================> DF-SCS-MP2 Energies <==================
	-----------------------------------------------------------
	 SCS Same-Spin Scale       =       0.3333333333333333 [-]
	 SCS Opposite-Spin Scale   =       1.2000000000000000 [-]
	 SCS Same-Spin Energy      =      -0.4904268476280312 [Eh]
	 SCS Opposite-Spin Energy  =      -4.8616988361458189 [Eh]
	 SCS Correlation Energy    =      -5.3521256837738500 [Eh]
	 SCS Total Energy          =   -1577.6454355603864315 [Eh]
	-----------------------------------------------------------

*** Psi4 exiting successfully. Buy a developer a beer!
