                               Psi4 1.3.2 release

  ==> Input File <==

--------------------------------------------------------------------------
molecule {
0 1
 C    0.392388    4.690443   -1.993276
 C    1.709767    4.512110   -1.549869
 C    2.166701    3.225235   -1.203927
 C    1.230465    2.174676   -1.364239
 N   -0.033130    2.324815   -1.782693
 C   -0.438082    3.567817   -2.086443
 C    3.555768    2.935497   -0.692488
 C    4.597402    3.873629   -0.602424
 C    5.812919    3.390266   -0.104111
 N    6.019498    2.132558    0.279821
 C    4.963229    1.301730    0.167476
 N    3.766901    1.666067   -0.297199
 N    5.191560   -0.000192    0.578056
 C    4.395432   -1.202776    0.565371
 C    5.035721   -2.469370    0.730598
 C    4.224384   -3.615703    0.680856
 C    2.839031   -3.584128    0.485002
 C    2.219509   -2.337276    0.355075
 C    3.004679   -1.174694    0.398063
 N    0.823114   -2.126071    0.145793
 C   -0.109193   -2.881838   -0.526142
 C   -1.456638   -2.242533   -0.801034
 C   -1.618045   -0.879757   -1.103085
 C   -2.893658   -0.342569   -1.289606
 C   -4.048775   -1.142513   -1.205902
 C   -3.868502   -2.514893   -0.944531
 C   -2.596582   -3.061699   -0.757385
 C   -5.446795   -0.534009   -1.332355
 N   -6.079079    0.079893   -0.151686
 C   -5.609905    1.403208    0.319478
 C   -4.526837    1.349896    1.428351
 N   -4.903866    0.517661    2.596597
 C   -5.767705    1.147529    3.602456
 C   -5.318362   -0.822540    2.113589
 C   -6.403369   -0.785502    1.005780
 O    0.114454   -4.029069   -0.878736
 C    6.534106   -2.626661    0.930338
 H    0.017493    5.674391   -2.259092
 H    2.351639    5.385630   -1.465845
 H    1.518571    1.148589   -1.159130
 H   -1.469694    3.652783   -2.425135
 H    4.516646    4.911840   -0.900033
 H    6.687078    4.032416   -0.000725
 H    6.155284   -0.093485    0.861216
 H    4.685900   -4.596773    0.787218
 H    2.251141   -4.490551    0.409738
 H    2.523971   -0.215584    0.301546
 H    0.485264   -1.237918    0.489998
 H   -0.744736   -0.237821   -1.189457
 H   -2.982458    0.724472   -1.492743
 H   -4.736030   -3.169213   -0.864186
 H   -2.471502   -4.122426   -0.553333
 H   -5.418166    0.237429   -2.114564
 H   -6.133421   -1.318836   -1.679960
 H   -5.253031    2.060854   -0.589755
 H   -6.794594    2.098809    0.894486
 H   -4.261714    2.584369    1.850410
 H   -3.473286    0.890158    0.975082
 H   -6.755433    1.373836    3.185254
 H   -5.313928    2.078372    3.961800
 H   -5.892563    0.481442    4.464071
 H   -5.686644   -1.487146    3.049757
 H   -4.132347   -1.456847    1.584948
 H   -7.640987   -0.256925    1.609108
 H   -6.664327   -1.942084    0.617249
 H    6.901128   -2.097591    1.821418
 H    7.087306   -2.235384    0.071823
 H    6.837764   -3.670156    1.048422
}
memory 20GB
set_num_threads(6)
psi4_io.set_default_path("/scratch/bdw2292")
set freeze_core True
E, wfn = energy('mp2/6-311++G**',return_wfn=True)
oeprop(wfn,"WIBERG_LOWDIN_INDICES")
clean()
--------------------------------------------------------------------------

    Molecular point group: c1

    Geometry (in Angstrom), charge = 0, multiplicity = 1:

       Center              X                  Y                   Z               Mass
    ------------   -----------------  -----------------  -----------------  -----------------
         C            0.259164295199     4.648107993657    -1.910552453451    12.000000000000
         C            1.576543295199     4.469774993657    -1.467145453451    12.000000000000
         C            2.033477295199     3.182899993657    -1.121203453451    12.000000000000
         C            1.097241295199     2.132340993657    -1.281515453451    12.000000000000
         N           -0.166353704801     2.282479993657    -1.699969453451    14.003074004430
         C           -0.571305704801     3.525481993657    -2.003719453451    12.000000000000
         C            3.422544295199     2.893161993657    -0.609764453451    12.000000000000
         C            4.464178295199     3.831293993657    -0.519700453451    12.000000000000
         C            5.679695295199     3.347930993657    -0.021387453451    12.000000000000
         N            5.886274295199     2.090222993657     0.362544546549    14.003074004430
         C            4.830005295199     1.259394993657     0.250199546549    12.000000000000
         N            3.633677295199     1.623731993657    -0.214475453451    14.003074004430
         N            5.058336295199    -0.042527006343     0.660779546549    14.003074004430
         C            4.262208295199    -1.245111006343     0.648094546549    12.000000000000
         C            4.902497295199    -2.511705006343     0.813321546549    12.000000000000
         C            4.091160295199    -3.658038006343     0.763579546549    12.000000000000
         C            2.705807295199    -3.626463006343     0.567725546549    12.000000000000
         C            2.086285295199    -2.379611006343     0.437798546549    12.000000000000
         C            2.871455295199    -1.217029006343     0.480786546549    12.000000000000
         N            0.689890295199    -2.168406006343     0.228516546549    14.003074004430
         C           -0.242416704801    -2.924173006343    -0.443418453451    12.000000000000
         C           -1.589861704801    -2.284868006343    -0.718310453451    12.000000000000
         C           -1.751268704801    -0.922092006343    -1.020361453451    12.000000000000
         C           -3.026881704801    -0.384904006343    -1.206882453451    12.000000000000
         C           -4.181998704801    -1.184848006343    -1.123178453451    12.000000000000
         C           -4.001725704801    -2.557228006343    -0.861807453451    12.000000000000
         C           -2.729805704801    -3.104034006343    -0.674661453451    12.000000000000
         C           -5.580018704801    -0.576344006343    -1.249631453451    12.000000000000
         N           -6.212302704801     0.037557993657    -0.068962453451    14.003074004430
         C           -5.743128704801     1.360872993657     0.402201546549    12.000000000000
         C           -4.660060704801     1.307560993657     1.511074546549    12.000000000000
         N           -5.037089704801     0.475325993657     2.679320546549    14.003074004430
         C           -5.900928704801     1.105193993657     3.685179546549    12.000000000000
         C           -5.451585704801    -0.864875006343     2.196312546549    12.000000000000
         C           -6.536592704801    -0.827837006343     1.088503546549    12.000000000000
         O           -0.018769704801    -4.071404006343    -0.796012453451    15.994914619570
         C            6.400882295199    -2.668996006343     1.013061546549    12.000000000000
         H           -0.115730704801     5.632055993657    -2.176368453451     1.007825032230
         H            2.218415295199     5.343294993657    -1.383121453451     1.007825032230
         H            1.385347295199     1.106253993657    -1.076406453451     1.007825032230
         H           -1.602917704801     3.610447993657    -2.342411453451     1.007825032230
         H            4.383422295199     4.869504993657    -0.817309453451     1.007825032230
         H            6.553854295199     3.990080993657     0.081998546549     1.007825032230
         H            6.022060295199    -0.135820006343     0.943939546549     1.007825032230
         H            4.552676295199    -4.639108006343     0.869941546549     1.007825032230
         H            2.117917295199    -4.532886006343     0.492461546549     1.007825032230
         H            2.390747295199    -0.257919006343     0.384269546549     1.007825032230
         H            0.352040295199    -1.280253006343     0.572721546549     1.007825032230
         H           -0.877959704801    -0.280156006343    -1.106733453451     1.007825032230
         H           -3.115681704801     0.682136993657    -1.410019453451     1.007825032230
         H           -4.869253704801    -3.211548006343    -0.781462453451     1.007825032230
         H           -2.604725704801    -4.164761006343    -0.470609453451     1.007825032230
         H           -5.551389704801     0.195093993657    -2.031840453451     1.007825032230
         H           -6.266644704801    -1.361171006343    -1.597236453451     1.007825032230
         H           -5.386254704801     2.018518993657    -0.507031453451     1.007825032230
         H           -6.927817704801     2.056473993657     0.977209546549     1.007825032230
         H           -4.394937704801     2.542033993657     1.933133546549     1.007825032230
         H           -3.606509704801     0.847822993657     1.057805546549     1.007825032230
         H           -6.888656704801     1.331500993657     3.267977546549     1.007825032230
         H           -5.447151704801     2.036036993657     4.044523546549     1.007825032230
         H           -6.025786704801     0.439106993657     4.546794546549     1.007825032230
         H           -5.819867704801    -1.529481006343     3.132480546549     1.007825032230
         H           -4.265570704801    -1.499182006343     1.667671546549     1.007825032230
         H           -7.774210704801    -0.299260006343     1.691831546549     1.007825032230
         H           -6.797550704801    -1.984419006343     0.699972546549     1.007825032230
         H            6.767904295199    -2.139926006343     1.904141546549     1.007825032230
         H            6.954082295199    -2.277719006343     0.154546546549     1.007825032230
         H            6.704540295199    -3.712491006343     1.131145546549     1.007825032230

  Charge       = 0
  Multiplicity = 1
  Basis Set: 6-311++G**
    Blend: 6-311++G**
  Basis Set: (6-311++G** AUX)
    Blend: AUG-CC-PVTZ-JKFIT

    Orbital Energies [Eh]
    ---------------------

    Doubly Occupied:

       1A    -20.518796     2A    -15.603708     3A    -15.597558
       4A    -15.586826     5A    -15.573248     6A    -15.568832
       7A    -15.568135     8A    -15.553001     9A    -11.374520
      10A    -11.361981    11A    -11.334573    12A    -11.315035
      13A    -11.313596    14A    -11.309630    15A    -11.301772
      16A    -11.301681    17A    -11.301550    18A    -11.300172
      19A    -11.295708    20A    -11.289722    21A    -11.289407
      22A    -11.280345    23A    -11.276195    24A    -11.266019
      25A    -11.255181    26A    -11.254896    27A    -11.252363
      28A    -11.250849    29A    -11.249165    30A    -11.248051
      31A    -11.245520    32A    -11.243705    33A    -11.243628
      34A    -11.239992    35A    -11.234763    36A    -11.231762
      37A    -11.227079    38A     -1.384233    39A     -1.344967
      40A     -1.278473    41A     -1.249889    42A     -1.243562
      43A     -1.240979    44A     -1.209346    45A     -1.197910
      46A     -1.159800    47A     -1.139710    48A     -1.116148
      49A     -1.075313    50A     -1.058148    51A     -1.048284
      52A     -1.037231    53A     -1.021533    54A     -1.008300
      55A     -0.991275    56A     -0.975563    57A     -0.946612
      58A     -0.927157    59A     -0.926411    60A     -0.901035
      61A     -0.872698    62A     -0.864271    63A     -0.857836
      64A     -0.840331    65A     -0.832772    66A     -0.826129
      67A     -0.824468    68A     -0.804046    69A     -0.778047
      70A     -0.753959    71A     -0.738686    72A     -0.730236
      73A     -0.722949    74A     -0.702606    75A     -0.695948
      76A     -0.682976    77A     -0.671368    78A     -0.666680
      79A     -0.657531    80A     -0.653891    81A     -0.652685
      82A     -0.640281    83A     -0.636905    84A     -0.628242
      85A     -0.624413    86A     -0.617987    87A     -0.612213
      88A     -0.606878    89A     -0.606252    90A     -0.604418
      91A     -0.599153    92A     -0.596802    93A     -0.589588
      94A     -0.585051    95A     -0.583896    96A     -0.581570
      97A     -0.578964    98A     -0.572566    99A     -0.563625
     100A     -0.561675   101A     -0.548050   102A     -0.544504
     103A     -0.528724   104A     -0.525459   105A     -0.523184
     106A     -0.521486   107A     -0.514929   108A     -0.508803
     109A     -0.507640   110A     -0.503933   111A     -0.501382
     112A     -0.492182   113A     -0.485653   114A     -0.477404
     115A     -0.457062   116A     -0.451272   117A     -0.442873
     118A     -0.435335   119A     -0.427188   120A     -0.420658
     121A     -0.414231   122A     -0.409369   123A     -0.400393
     124A     -0.380810   125A     -0.373865   126A     -0.346135
     127A     -0.343810   128A     -0.340403   129A     -0.317004
     130A     -0.311750   131A     -0.291993

  @DF-RHF Final Energy: -1572.37205576492192

   => Energetics <=

    Nuclear Repulsion Energy =           3747.5604637063283917
    One-Electron Energy =               -9593.6472211360887741
    Two-Electron Energy =                4273.7147016648386852
    Total Energy =                      -1572.3720557649221519

  Dipole Moment: [D]
     X:     1.2413      Y:     6.5867      Z:     0.2213     Total:     6.7063

  Basis Set: (6-311++G** AUX)
    Blend: AUG-CC-PVTZ-RI
	 Reference Energy          =   -1572.3720557649219245 [Eh]
	 Singles Energy            =      -0.0000000000000000 [Eh]
	 Same-Spin Energy          =      -1.4710725842178984 [Eh]
	 Opposite-Spin Energy      =      -4.0473115047573396 [Eh]
	 Correlation Energy        =      -5.5183840889752380 [Eh]
	 Total Energy              =   -1577.8904398538970781 [Eh]

	 ================> DF-SCS-MP2 Energies <==================
	-----------------------------------------------------------
	 SCS Same-Spin Scale       =       0.3333333333333333 [-]
	 SCS Opposite-Spin Scale   =       1.2000000000000000 [-]
	 SCS Same-Spin Energy      =      -0.4903575280726328 [Eh]
	 SCS Opposite-Spin Energy  =      -4.8567738057088077 [Eh]
	 SCS Correlation Energy    =      -5.3471313337814408 [Eh]
	 SCS Total Energy          =   -1577.7191870987032871 [Eh]
	-----------------------------------------------------------

*** Psi4 exiting successfully. Buy a developer a beer!
