                               Psi4 1.3.2 release

  ==> Input File <==

--------------------------------------------------------------------------
molecule {
0 1
 C    0.276517    4.612561   -0.929525
 C    1.608240    4.492640   -0.509335
 C    2.203040    3.219315   -0.417450
 C    1.387144    2.127349   -0.803341
 N    0.114456    2.221288   -1.209186
 C   -0.426220    3.448640   -1.262456
 C    3.617212    2.982239    0.049565
 C    4.572507    3.980611    0.301616
 C    5.834373    3.528331    0.707513
 N    6.155818    2.246768    0.874755
 C    5.171987    1.358215    0.628924
 N    3.943827    1.689874    0.229441
 N    5.501693    0.028115    0.819532
 C    4.799599   -1.203785    0.556675
 C    5.534643   -2.419883    0.417615
 C    4.802717   -3.586923    0.140324
 C    3.411758   -3.620463   -0.014341
 C    2.698614   -2.427555    0.145527
 C    3.404278   -1.249453    0.437577
 N    1.279363   -2.275732    0.015745
 C    0.299154   -3.147337   -0.401324
 C   -1.095689   -2.587367   -0.619926
 C   -1.359425   -1.256980   -0.990363
 C   -2.674470   -0.810356   -1.139200
 C   -3.774267   -1.666058   -0.935600
 C   -3.494173   -3.007254   -0.607997
 C   -2.181958   -3.464916   -0.461601
 C   -5.210741   -1.158203   -1.102486
 N   -5.579716    0.176258   -0.593418
 C   -5.148815    0.566292    0.768972
 C   -6.180435    0.179463    1.859653
 N   -7.557039    0.673215    1.606416
 C   -7.835633    2.056091    2.011748
 C   -7.967122    0.293461    0.231736
 C   -6.943032    0.681512   -0.864869
 O    0.518472   -4.336344   -0.577797
 C    7.047833   -2.495974    0.533527
 H   -0.206107    5.583027   -0.996649
 H    2.152088    5.394075   -0.237519
 H    1.788021    1.118459   -0.808344
 H   -1.462574    3.489569   -1.594594
 H    4.396011    5.042767    0.183087
 H    6.651837    4.218409    0.914662
 H    6.475429   -0.041830    1.074004
 H    5.335799   -4.529570    0.023399
 H    2.888233   -4.538262   -0.250863
 H    2.856662   -0.332943    0.583032
 H    0.946751   -1.343853    0.218134
 H   -0.537692   -0.565326   -1.162589
 H   -2.841210    0.230058   -1.415802
 H   -4.311915   -3.712452   -0.461302
 H   -1.982134   -4.504053   -0.210997
 H   -5.450405   -1.115518   -2.174661
 H   -5.861387   -1.925664   -0.660187
 H   -4.152761    0.152155    0.999037
 H   -4.997497    2.000312    0.786249
 H   -5.785969    0.606045    3.025836
 H   -6.256059   -1.306082    1.925537
 H   -7.245923    2.764716    1.418806
 H   -7.594636    2.195804    3.071815
 H   -8.899593    2.282851    1.877706
 H   -9.080268    0.783211   -0.014588
 H   -8.117354   -1.175124    0.221750
 H   -6.875167    2.112966   -0.940802
 H   -7.369930    0.242217   -2.080060
 H    7.411701   -2.206499    1.529776
 H    7.530951   -1.834976   -0.191505
 H    7.434899   -3.500675    0.344728
}
memory 20GB
set_num_threads(6)
psi4_io.set_default_path("/scratch/bdw2292")
set freeze_core True
E, wfn = energy('mp2/6-311+G*',return_wfn=True)
oeprop(wfn,"WIBERG_LOWDIN_INDICES")
clean()
--------------------------------------------------------------------------

    Molecular point group: c1

    Geometry (in Angstrom), charge = 0, multiplicity = 1:

       Center              X                  Y                   Z               Mass
    ------------   -----------------  -----------------  -----------------  -----------------
         C            0.180510426701     4.620649555593    -0.915292375240    12.000000000000
         C            1.512233426701     4.500728555593    -0.495102375240    12.000000000000
         C            2.107033426701     3.227403555593    -0.403217375240    12.000000000000
         C            1.291137426701     2.135437555593    -0.789108375240    12.000000000000
         N            0.018449426701     2.229376555593    -1.194953375240    14.003074004430
         C           -0.522226573299     3.456728555593    -1.248223375240    12.000000000000
         C            3.521205426701     2.990327555593     0.063797624760    12.000000000000
         C            4.476500426701     3.988699555593     0.315848624760    12.000000000000
         C            5.738366426701     3.536419555593     0.721745624760    12.000000000000
         N            6.059811426701     2.254856555593     0.888987624760    14.003074004430
         C            5.075980426701     1.366303555593     0.643156624760    12.000000000000
         N            3.847820426701     1.697962555593     0.243673624760    14.003074004430
         N            5.405686426701     0.036203555593     0.833764624760    14.003074004430
         C            4.703592426701    -1.195696444407     0.570907624760    12.000000000000
         C            5.438636426701    -2.411794444407     0.431847624760    12.000000000000
         C            4.706710426701    -3.578834444407     0.154556624760    12.000000000000
         C            3.315751426701    -3.612374444407    -0.000108375240    12.000000000000
         C            2.602607426701    -2.419466444407     0.159759624760    12.000000000000
         C            3.308271426701    -1.241364444407     0.451809624760    12.000000000000
         N            1.183356426701    -2.267643444407     0.029977624760    14.003074004430
         C            0.203147426701    -3.139248444407    -0.387091375240    12.000000000000
         C           -1.191695573299    -2.579278444407    -0.605693375240    12.000000000000
         C           -1.455431573299    -1.248891444407    -0.976130375240    12.000000000000
         C           -2.770476573299    -0.802267444407    -1.124967375240    12.000000000000
         C           -3.870273573299    -1.657969444407    -0.921367375240    12.000000000000
         C           -3.590179573299    -2.999165444407    -0.593764375240    12.000000000000
         C           -2.277964573299    -3.456827444407    -0.447368375240    12.000000000000
         C           -5.306747573299    -1.150114444407    -1.088253375240    12.000000000000
         N           -5.675722573299     0.184346555593    -0.579185375240    14.003074004430
         C           -5.244821573299     0.574380555593     0.783204624760    12.000000000000
         C           -6.276441573299     0.187551555593     1.873885624760    12.000000000000
         N           -7.653045573299     0.681303555593     1.620648624760    14.003074004430
         C           -7.931639573299     2.064179555593     2.025980624760    12.000000000000
         C           -8.063128573299     0.301549555593     0.245968624760    12.000000000000
         C           -7.039038573299     0.689600555593    -0.850636375240    12.000000000000
         O            0.422465426701    -4.328255444407    -0.563564375240    15.994914619570
         C            6.951826426701    -2.487885444407     0.547759624760    12.000000000000
         H           -0.302113573299     5.591115555593    -0.982416375240     1.007825032230
         H            2.056081426701     5.402163555593    -0.223286375240     1.007825032230
         H            1.692014426701     1.126547555593    -0.794111375240     1.007825032230
         H           -1.558580573299     3.497657555593    -1.580361375240     1.007825032230
         H            4.300004426701     5.050855555593     0.197319624760     1.007825032230
         H            6.555830426701     4.226497555593     0.928894624760     1.007825032230
         H            6.379422426701    -0.033741444407     1.088236624760     1.007825032230
         H            5.239792426701    -4.521481444407     0.037631624760     1.007825032230
         H            2.792226426701    -4.530173444407    -0.236630375240     1.007825032230
         H            2.760655426701    -0.324854444407     0.597264624760     1.007825032230
         H            0.850744426701    -1.335764444407     0.232366624760     1.007825032230
         H           -0.633698573299    -0.557237444407    -1.148356375240     1.007825032230
         H           -2.937216573299     0.238146555593    -1.401569375240     1.007825032230
         H           -4.407921573299    -3.704363444407    -0.447069375240     1.007825032230
         H           -2.078140573299    -4.495964444407    -0.196764375240     1.007825032230
         H           -5.546411573299    -1.107429444407    -2.160428375240     1.007825032230
         H           -5.957393573299    -1.917575444407    -0.645954375240     1.007825032230
         H           -4.248767573299     0.160243555593     1.013269624760     1.007825032230
         H           -5.093503573299     2.008400555593     0.800481624760     1.007825032230
         H           -5.881975573299     0.614133555593     3.040068624760     1.007825032230
         H           -6.352065573299    -1.297993444407     1.939769624760     1.007825032230
         H           -7.341929573299     2.772804555593     1.433038624760     1.007825032230
         H           -7.690642573299     2.203892555593     3.086047624760     1.007825032230
         H           -8.995599573299     2.290939555593     1.891938624760     1.007825032230
         H           -9.176274573299     0.791299555593    -0.000355375240     1.007825032230
         H           -8.213360573299    -1.167035444407     0.235982624760     1.007825032230
         H           -6.971173573299     2.121054555593    -0.926569375240     1.007825032230
         H           -7.465936573299     0.250305555593    -2.065827375240     1.007825032230
         H            7.315694426701    -2.198410444407     1.544008624760     1.007825032230
         H            7.434944426701    -1.826887444407    -0.177272375240     1.007825032230
         H            7.338892426701    -3.492586444407     0.358960624760     1.007825032230

  Charge       = 0
  Multiplicity = 1
  Basis Set: 6-311+G*
    Blend: 6-311+G*
  Basis Set: (6-311+G* AUX)
    Blend: HEAVY-AUG-CC-PVTZ-JKFIT

    Orbital Energies [Eh]
    ---------------------

    Doubly Occupied:

       1A    -20.519282     2A    -15.603535     3A    -15.601550
       4A    -15.585716     5A    -15.573005     6A    -15.568434
       7A    -15.567270     8A    -15.566692     9A    -11.373717
      10A    -11.363638    11A    -11.333761    12A    -11.330730
      13A    -11.322536    14A    -11.319407    15A    -11.313835
      16A    -11.302033    17A    -11.300905    18A    -11.300532
      19A    -11.299705    20A    -11.292823    21A    -11.289259
      22A    -11.279307    23A    -11.275485    24A    -11.265274
      25A    -11.262126    26A    -11.256218    27A    -11.255233
      28A    -11.252547    29A    -11.251666    30A    -11.248313
      31A    -11.246555    32A    -11.245624    33A    -11.241679
      34A    -11.239634    35A    -11.233750    36A    -11.231413
      37A    -11.224866    38A     -1.384837    39A     -1.344922
      40A     -1.277712    41A     -1.250393    42A     -1.249599
      43A     -1.241366    44A     -1.209173    45A     -1.204435
      46A     -1.160192    47A     -1.139509    48A     -1.115473
      49A     -1.074842    50A     -1.058981    51A     -1.047777
      52A     -1.037619    53A     -1.020695    54A     -1.007605
      55A     -0.997085    56A     -0.976746    57A     -0.947671
      58A     -0.930334    59A     -0.926012    60A     -0.900516
      61A     -0.872228    62A     -0.866902    63A     -0.857650
      64A     -0.839856    65A     -0.838456    66A     -0.826505
      67A     -0.825018    68A     -0.803889    69A     -0.777384
      70A     -0.754291    71A     -0.739202    72A     -0.730124
      73A     -0.721847    74A     -0.701971    75A     -0.692882
      76A     -0.682558    77A     -0.670152    78A     -0.665657
      79A     -0.661485    80A     -0.656224    81A     -0.652242
      82A     -0.639904    83A     -0.635351    84A     -0.628913
      85A     -0.625273    86A     -0.620069    87A     -0.612190
      88A     -0.607473    89A     -0.605881    90A     -0.602670
      91A     -0.601450    92A     -0.595697    93A     -0.593222
      94A     -0.591667    95A     -0.589365    96A     -0.583894
      97A     -0.580509    98A     -0.575395    99A     -0.560655
     100A     -0.558131   101A     -0.552174   102A     -0.548464
     103A     -0.544221   104A     -0.524524   105A     -0.522386
     106A     -0.517983   107A     -0.514043   108A     -0.511051
     109A     -0.508533   110A     -0.500282   111A     -0.497795
     112A     -0.494782   113A     -0.484697   114A     -0.478266
     115A     -0.463395   116A     -0.451109   117A     -0.441899
     118A     -0.435734   119A     -0.426749   120A     -0.424936
     121A     -0.413628   122A     -0.407434   123A     -0.399371
     124A     -0.387618   125A     -0.372576   126A     -0.345305
     127A     -0.343098   128A     -0.336410   129A     -0.321671
     130A     -0.313475   131A     -0.289852

  @DF-RHF Final Energy: -1572.27592742321849

   => Energetics <=

    Nuclear Repulsion Energy =           3658.0844590572769448
    One-Electron Energy =               -9414.2023059159237164
    Two-Electron Energy =                4183.8419194354282808
    Total Energy =                      -1572.2759274232184907

  Dipole Moment: [D]
     X:     0.2536      Y:     7.5162      Z:     0.5291     Total:     7.5390

  Basis Set: (6-311+G* AUX)
    Blend: HEAVY-AUG-CC-PVTZ-RI
	 Reference Energy          =   -1572.2759274232184907 [Eh]
	 Singles Energy            =      -0.0000000000000000 [Eh]
	 Same-Spin Energy          =      -1.4467191354194004 [Eh]
	 Opposite-Spin Energy      =      -3.8920948449584341 [Eh]
	 Correlation Energy        =      -5.3388139803778341 [Eh]
	 Total Energy              =   -1577.6147414035963266 [Eh]

	 ================> DF-SCS-MP2 Energies <==================
	-----------------------------------------------------------
	 SCS Same-Spin Scale       =       0.3333333333333333 [-]
	 SCS Opposite-Spin Scale   =       1.2000000000000000 [-]
	 SCS Same-Spin Energy      =      -0.4822397118064668 [Eh]
	 SCS Opposite-Spin Energy  =      -4.6705138139501203 [Eh]
	 SCS Correlation Energy    =      -5.1527535257565873 [Eh]
	 SCS Total Energy          =   -1577.4286809489751704 [Eh]
	-----------------------------------------------------------

*** Psi4 exiting successfully. Buy a developer a beer!
