 Gaussian 09, Revision A.02,
 Gaussian 09:  EM64L-G09RevA.02 11-Jun-2009

 --------------------------------------------------
 #P opt=(,maxcycle=400) wB97XD/6-31G* MaxDisk=100GB
 --------------------------------------------------

 -----------------------------------------------------------------
 MOLECULE0 Rotatable Bond Optimization on g2-node38.bme.utexas.edu
 -----------------------------------------------------------------
 Symbolic Z-matrix:
 Charge =  0 Multiplicity = 1

 SCF Done:  E(RwB97XD) =  -1581.46777076     A.U. after   16 cycles
 SCF Done:  E(RwB97XD) =  -1581.53989106     A.U. after   13 cycles
 SCF Done:  E(RwB97XD) =  -1581.65492324     A.U. after   14 cycles
 SCF Done:  E(RwB97XD) =  -1581.70579813     A.U. after   14 cycles
 SCF Done:  E(RwB97XD) =  -1581.72424338     A.U. after   17 cycles
 SCF Done:  E(RwB97XD) =  -1581.71723907     A.U. after   14 cycles
 SCF Done:  E(RwB97XD) =  -1581.73881904     A.U. after   14 cycles
 SCF Done:  E(RwB97XD) =  -1581.75213565     A.U. after   14 cycles
 SCF Done:  E(RwB97XD) =  -1581.75709971     A.U. after   14 cycles
 SCF Done:  E(RwB97XD) =  -1581.75913767     A.U. after   16 cycles
 SCF Done:  E(RwB97XD) =  -1581.76303284     A.U. after   13 cycles
 SCF Done:  E(RwB97XD) =  -1581.76301435     A.U. after   13 cycles
 SCF Done:  E(RwB97XD) =  -1581.76312769     A.U. after   13 cycles
 SCF Done:  E(RwB97XD) =  -1581.76318601     A.U. after   12 cycles
 SCF Done:  E(RwB97XD) =  -1581.76320782     A.U. after   11 cycles
 SCF Done:  E(RwB97XD) =  -1581.76321457     A.U. after   11 cycles
 SCF Done:  E(RwB97XD) =  -1581.76321569     A.U. after   11 cycles
 SCF Done:  E(RwB97XD) =  -1581.76321623     A.U. after    8 cycles
 SCF Done:  E(RwB97XD) =  -1581.76321625     A.U. after    8 cycles
 SCF Done:  E(RwB97XD) =  -1581.76321626     A.U. after    7 cycles
 Optimization completed.
    -- Stationary point found.

                         Standard orientation:
 ---------------------------------------------------------------------
 Center     Atomic      Atomic             Coordinates (Angstroms)
 Number     Number       Type             X           Y           Z
 ---------------------------------------------------------------------
      1          6           0       -0.473236    4.275584   -0.770056
      2          6           0        0.871417    4.192729   -0.429312
      3          6           0        1.547673    2.990719   -0.630997
      4          6           0        0.820923    1.926839   -1.181937
      5          7           0       -0.468178    1.990752   -1.510501
      6          6           0       -1.096899    3.150805   -1.299013
      7          6           0        2.969667    2.789344   -0.253930
      8          6           0        3.900759    3.819241   -0.154545
      9          6           0        5.186726    3.446521    0.235060
     10          7           0        5.546019    2.197108    0.496059
     11          6           0        4.572554    1.274766    0.353735
     12          7           0        3.312442    1.523605   -0.002502
     13          7           0        4.961327   -0.011333    0.611707
     14          6           0        4.245343   -1.217343    0.493976
     15          6           0        4.968875   -2.427194    0.479759
     16          6           0        4.248024   -3.609987    0.339304
     17          6           0        2.862238   -3.651086    0.196642
     18          6           0        2.171222   -2.443380    0.217563
     19          6           0        2.859788   -1.243427    0.393124
     20          7           0        0.784657   -2.305276    0.040017
     21          6           0       -0.155390   -3.232331   -0.330609
     22          6           0       -1.474722   -2.600784   -0.675195
     23          6           0       -1.549711   -1.357596   -1.310307
     24          6           0       -2.781993   -0.778308   -1.574339
     25          6           0       -3.965468   -1.409752   -1.191992
     26          6           0       -3.883895   -2.677441   -0.608959
     27          6           0       -2.653835   -3.274351   -0.358466
     28          6           0       -5.302481   -0.704020   -1.349194
     29          7           0       -5.692730    0.226040   -0.300384
     30          6           0       -5.025793    1.522714   -0.247893
     31          6           0       -3.816086    1.577606    0.702897
     32          7           0       -4.113755    1.068510    2.038805
     33          6           0       -4.902798    1.977491    2.851083
     34          6           0       -4.679864   -0.274888    1.939479
     35          6           0       -5.914742   -0.340421    1.025419
     36          8           0        0.036472   -4.436212   -0.364190
     37          6           0        6.471660   -2.443201    0.599356
     38          1           0       -1.032530    5.192245   -0.616848
     39          1           0        1.376695    5.045688    0.014565
     40          1           0        1.324878    0.981484   -1.366294
     41          1           0       -2.151968    3.177789   -1.562911
     42          1           0        3.661809    4.851111   -0.380121
     43          1           0        5.968307    4.196623    0.338127
     44          1           0        5.942498   -0.077471    0.837849
     45          1           0        4.796065   -4.548790    0.326727
     46          1           0        2.333100   -4.585143    0.066586
     47          1           0        2.314941   -0.311917    0.417887
     48          1           0        0.446226   -1.358796    0.131283
     49          1           0       -0.653213   -0.832312   -1.626590
     50          1           0       -2.809736    0.191257   -2.065033
     51          1           0       -4.798683   -3.197514   -0.333234
     52          1           0       -2.590208   -4.257087    0.098084
     53          1           0       -5.308061   -0.148591   -2.294871
     54          1           0       -6.094810   -1.459833   -1.423879
     55          1           0       -4.723883    1.804306   -1.263825
     56          1           0       -5.767214    2.267773    0.078075
     57          1           0       -3.458963    2.611510    0.792707
     58          1           0       -2.991014    0.982567    0.295835
     59          1           0       -5.912730    2.205206    2.466772
     60          1           0       -4.365071    2.926815    2.951628
     61          1           0       -5.018856    1.550368    3.853160
     62          1           0       -4.938654   -0.623602    2.946661
     63          1           0       -3.897884   -0.938318    1.552096
     64          1           0       -6.743579    0.207991    1.497373
     65          1           0       -6.248478   -1.378203    0.914262
     66          1           0        6.817266   -2.031275    1.557408
     67          1           0        6.951999   -1.867208   -0.202284
     68          1           0        6.851751   -3.465917    0.536000
 ---------------------------------------------------------------------

 The electronic state is 1-A.
 Alpha  occ. eigenvalues --  -19.23411 -14.49283 -14.48320 -14.46751 -14.46096
 Alpha  occ. eigenvalues --  -14.45764 -14.43616 -14.43135 -10.41778 -10.40081
 Alpha  occ. eigenvalues --  -10.37615 -10.36338 -10.35325 -10.35085 -10.34624
 Alpha  occ. eigenvalues --  -10.34135 -10.34015 -10.33623 -10.32863 -10.32367
 Alpha  occ. eigenvalues --  -10.31861 -10.31492 -10.31179 -10.30935 -10.30708
 Alpha  occ. eigenvalues --  -10.30688 -10.30677 -10.30586 -10.30534 -10.30402
 Alpha  occ. eigenvalues --  -10.30377 -10.30220 -10.30020 -10.29974 -10.29575
 Alpha  occ. eigenvalues --  -10.28739 -10.28404  -1.13443  -1.12296  -1.06322
 Alpha  occ. eigenvalues --   -1.04565  -1.03828  -1.03633  -1.00716  -0.99557
 Alpha  occ. eigenvalues --   -0.96085  -0.94671  -0.93098  -0.89778  -0.88124
 Alpha  occ. eigenvalues --   -0.87389  -0.86227  -0.85399  -0.84541  -0.83783
 Alpha  occ. eigenvalues --   -0.81888  -0.79581  -0.78270  -0.77798  -0.76320
 Alpha  occ. eigenvalues --   -0.73882  -0.73300  -0.73025  -0.72621  -0.70870
 Alpha  occ. eigenvalues --   -0.70314  -0.69614  -0.68039  -0.66413  -0.65150
 Alpha  occ. eigenvalues --   -0.63656  -0.63409  -0.62229  -0.61762  -0.60211
 Alpha  occ. eigenvalues --   -0.58848  -0.58045  -0.57570  -0.56611  -0.56101
 Alpha  occ. eigenvalues --   -0.55817  -0.55236  -0.55134  -0.54964  -0.54255
 Alpha  occ. eigenvalues --   -0.53867  -0.53239  -0.53154  -0.52612  -0.52174
 Alpha  occ. eigenvalues --   -0.51912  -0.51509  -0.51371  -0.50999  -0.50575
 Alpha  occ. eigenvalues --   -0.50365  -0.50117  -0.49974  -0.49497  -0.48335
 Alpha  occ. eigenvalues --   -0.47216  -0.46906  -0.46619  -0.46320  -0.46211
 Alpha  occ. eigenvalues --   -0.45762  -0.45236  -0.44797  -0.44044  -0.43931
 Alpha  occ. eigenvalues --   -0.43328  -0.43016  -0.42141  -0.41766  -0.41439
 Alpha  occ. eigenvalues --   -0.40964  -0.40776  -0.39911  -0.38187  -0.37592
 Alpha  occ. eigenvalues --   -0.35821  -0.35293  -0.34002  -0.33446  -0.33374
 Alpha  occ. eigenvalues --   -0.32818  -0.31904  -0.30772  -0.29115  -0.27079
 Alpha  occ. eigenvalues --   -0.24996
 Alpha virt. eigenvalues --   -0.00292   0.02872   0.03585   0.04480   0.06434
 Alpha virt. eigenvalues --    0.07258   0.08204   0.10373   0.13887   0.14815
 Alpha virt. eigenvalues --    0.15728   0.16386   0.17252   0.17441   0.18251

 Mulliken atomic charges:
              1
     1  C   -0.197841
     2  C   -0.154398
     3  C    0.035519
     4  C    0.009573
     5  N   -0.437525
     6  C    0.035736
     7  C    0.295162
     8  C   -0.254779
     9  C    0.049023
    10  N   -0.493051
    11  C    0.714435
    12  N   -0.568421
    13  N   -0.802140
    14  C    0.291509
    15  C    0.119854
    16  C   -0.240384
    17  C   -0.191293
    18  C    0.358111
    19  C   -0.269702
    20  N   -0.757936
    21  C    0.585743
    22  C    0.015207
    23  C   -0.205356
    24  C   -0.217912
    25  C    0.155972
    26  C   -0.223075
    27  C   -0.178381
    28  C   -0.263562
    29  N   -0.382230
    30  C   -0.183897
    31  C   -0.181778
    32  N   -0.385724
    33  C   -0.349276
    34  C   -0.182627
    35  C   -0.186511
    36  O   -0.513295
    37  C   -0.607369
    38  H    0.186141
    39  H    0.186728
    40  H    0.198124
    41  H    0.179049
    42  H    0.180746
    43  H    0.189494
    44  H    0.369214
    45  H    0.160818
    46  H    0.213083
    47  H    0.199389
    48  H    0.361552
    49  H    0.185434
    50  H    0.172071
    51  H    0.163616
    52  H    0.195618
    53  H    0.170282
    54  H    0.168922
    55  H    0.148159
    56  H    0.158359
    57  H    0.141656
    58  H    0.174893
    59  H    0.135271
    60  H    0.164121
    61  H    0.167873
    62  H    0.153487
    63  H    0.172922
    64  H    0.159399
    65  H    0.154995
    66  H    0.178036
    67  H    0.182744
    68  H    0.190421
 Sum of Mulliken atomic charges =   0.00000

 Dipole moment (field-independent basis, Debye):
    X=              0.5808    Y=              6.5723    Z=              0.4346  Tot=              6.6122
 Quadrupole moment (field-independent basis, Debye-Ang):
   XX=           -193.2944   YY=           -202.4977   ZZ=           -220.4881
   XY=              3.1108   XZ=             -1.2758   YZ=             -5.2123

 Normal termination of Gaussian 09 at Wed Mar 11 01:58:34 2020.
