 Gaussian 09, Revision A.02,
 Gaussian 09:  EM64L-G09RevA.02 11-Jun-2009

 --------------------------------------------------
 #P opt=(,maxcycle=400) wB97XD/6-31G* MaxDisk=100GB
 --------------------------------------------------

 --------------------------------------------------------------
 MOLECULE0 Rotatable Bond Optimization on node37.bme.utexas.edu
 --------------------------------------------------------------
 Symbolic Z-matrix:
 Charge =  0 Multiplicity = 1

 SCF Done:  E(RwB97XD) =  -1581.44743090     A.U. after   16 cycles
 SCF Done:  E(RwB97XD) =  -1581.51636624     A.U. after   14 cycles
 SCF Done:  E(RwB97XD) =  -1581.61736452     A.U. after   15 cycles
 SCF Done:  E(RwB97XD) =  -1581.69999431     A.U. after   17 cycles
 SCF Done:  E(RwB97XD) =  -1581.73208281     A.U. after   14 cycles
 SCF Done:  E(RwB97XD) =  -1581.71885392     A.U. after   17 cycles
 SCF Done:  E(RwB97XD) =  -1581.73793530     A.U. after   16 cycles
 SCF Done:  E(RwB97XD) =  -1581.74392363     A.U. after   16 cycles
 SCF Done:  E(RwB97XD) =  -1581.75179251     A.U. after   14 cycles
 SCF Done:  E(RwB97XD) =  -1581.75932387     A.U. after   15 cycles
 SCF Done:  E(RwB97XD) =  -1581.76379735     A.U. after   11 cycles
 SCF Done:  E(RwB97XD) =  -1581.76380212     A.U. after   12 cycles
 SCF Done:  E(RwB97XD) =  -1581.76380809     A.U. after   12 cycles
 SCF Done:  E(RwB97XD) =  -1581.76381049     A.U. after   13 cycles
 SCF Done:  E(RwB97XD) =  -1581.76381141     A.U. after    9 cycles
 SCF Done:  E(RwB97XD) =  -1581.76381144     A.U. after    9 cycles
 SCF Done:  E(RwB97XD) =  -1581.76381195     A.U. after    9 cycles
 SCF Done:  E(RwB97XD) =  -1581.76381194     A.U. after    7 cycles
 SCF Done:  E(RwB97XD) =  -1581.76381194     A.U. after    7 cycles
 SCF Done:  E(RwB97XD) =  -1581.76381195     A.U. after    6 cycles
 Optimization completed.
    -- Stationary point found.

                         Standard orientation:
 ---------------------------------------------------------------------
 Center     Atomic      Atomic             Coordinates (Angstroms)
 Number     Number       Type             X           Y           Z
 ---------------------------------------------------------------------
      1          6           0        0.468982    4.111526   -0.845599
      2          6           0       -0.909168    4.106033   -0.666251
      3          6           0       -1.491033    3.055324    0.040420
      4          6           0       -0.633234    2.084230    0.571913
      5          7           0        0.685754    2.073540    0.404683
      6          6           0        1.222050    3.066685   -0.316773
      7          6           0       -2.957484    2.883602    0.167667
      8          6           0       -3.869821    3.933441    0.225410
      9          6           0       -5.213871    3.571949    0.305721
     10          7           0       -5.641999    2.315823    0.314318
     11          6           0       -4.675758    1.377590    0.256216
     12          7           0       -3.365877    1.612417    0.201349
     13          7           0       -5.129287    0.085769    0.240662
     14          6           0       -4.430254   -1.122578    0.062213
     15          6           0       -5.175969   -2.286912   -0.214760
     16          6           0       -4.475498   -3.475036   -0.401543
     17          6           0       -3.087097   -3.565782   -0.329876
     18          6           0       -2.372909   -2.405318   -0.044721
     19          6           0       -3.044832   -1.200397    0.156078
     20          7           0       -0.973193   -2.338195    0.087696
     21          6           0       -0.026452   -3.275683   -0.233658
     22          6           0        1.377489   -2.831789    0.069939
     23          6           0        1.689089   -2.034955    1.175493
     24          6           0        3.005682   -1.675786    1.431380
     25          6           0        4.037344   -2.076765    0.580824
     26          6           0        3.717080   -2.880867   -0.515627
     27          6           0        2.405611   -3.267289   -0.764545
     28          6           0        5.477827   -1.663120    0.845077
     29          7           0        5.897524   -0.334947    0.436993
     30          6           0        5.548271    0.799327    1.282194
     31          6           0        4.294784    1.563618    0.826942
     32          7           0        4.337653    1.927706   -0.589956
     33          6           0        5.253538    3.015403   -0.892517
     34          6           0        4.559906    0.725559   -1.393492
     35          6           0        5.833230   -0.032595   -0.986449
     36          8           0       -0.272315   -4.363912   -0.726872
     37          6           0       -6.679661   -2.249151   -0.318120
     38          1           0        0.953824    4.899125   -1.412921
     39          1           0       -1.527774    4.882753   -1.108070
     40          1           0       -1.053301    1.276452    1.166499
     41          1           0        2.294972    2.988865   -0.492841
     42          1           0       -3.562629    4.972195    0.231650
     43          1           0       -5.986349    4.336099    0.364145
     44          1           0       -6.136879    0.035041    0.250492
     45          1           0       -5.040308   -4.377353   -0.622247
     46          1           0       -2.573620   -4.501782   -0.498907
     47          1           0       -2.485464   -0.300026    0.355928
     48          1           0       -0.617433   -1.420393    0.314133
     49          1           0        0.911079   -1.727310    1.868845
     50          1           0        3.235635   -1.082864    2.313455
     51          1           0        4.510369   -3.222254   -1.176924
     52          1           0        2.161383   -3.913723   -1.601494
     53          1           0        5.681982   -1.752925    1.918729
     54          1           0        6.137385   -2.383364    0.343105
     55          1           0        5.421685    0.447815    2.312137
     56          1           0        6.402335    1.493843    1.290965
     57          1           0        4.176204    2.478156    1.421013
     58          1           0        3.393634    0.958857    0.976960
     59          1           0        6.316990    2.814431   -0.680219
     60          1           0        4.960827    3.898583   -0.313333
     61          1           0        5.168416    3.265467   -1.955680
     62          1           0        4.611384    1.010570   -2.451298
     63          1           0        3.685562    0.076249   -1.264864
     64          1           0        6.714386    0.569741   -1.254739
     65          1           0        5.909218   -0.968483   -1.550686
     66          1           0       -7.020399   -1.560851   -1.102640
     67          1           0       -7.151768   -1.939075    0.624055
     68          1           0       -7.073885   -3.238904   -0.561834
 ---------------------------------------------------------------------

 The electronic state is 1-A.
 Alpha  occ. eigenvalues --  -19.23439 -14.48957 -14.48413 -14.45697 -14.45306
 Alpha  occ. eigenvalues --  -14.45284 -14.44072 -14.43761 -10.41337 -10.40167
 Alpha  occ. eigenvalues --  -10.37025 -10.35927 -10.34427 -10.34093 -10.33843
 Alpha  occ. eigenvalues --  -10.33247 -10.33076 -10.32612 -10.32547 -10.31641
 Alpha  occ. eigenvalues --  -10.31535 -10.31535 -10.31381 -10.31358 -10.31174
 Alpha  occ. eigenvalues --  -10.31100 -10.31079 -10.30977 -10.30899 -10.30535
 Alpha  occ. eigenvalues --  -10.30517 -10.30422 -10.30191 -10.29882 -10.29377
 Alpha  occ. eigenvalues --  -10.28474 -10.28225  -1.13535  -1.11888  -1.05035
 Alpha  occ. eigenvalues --   -1.04269  -1.04169  -1.03481  -1.00234  -1.00021
 Alpha  occ. eigenvalues --   -0.96308  -0.94450  -0.92159  -0.89073  -0.88022
 Alpha  occ. eigenvalues --   -0.86546  -0.86190  -0.85710  -0.84872  -0.83493
 Alpha  occ. eigenvalues --   -0.82249  -0.79660  -0.78061  -0.77429  -0.75826
 Alpha  occ. eigenvalues --   -0.73657  -0.73018  -0.72929  -0.71938  -0.70978
 Alpha  occ. eigenvalues --   -0.70536  -0.69380  -0.67994  -0.66279  -0.64706
 Alpha  occ. eigenvalues --   -0.63941  -0.62946  -0.62083  -0.60957  -0.59905
 Alpha  occ. eigenvalues --   -0.58439  -0.58088  -0.56888  -0.56754  -0.55898
 Alpha  occ. eigenvalues --   -0.55558  -0.55290  -0.55081  -0.54584  -0.54202
 Alpha  occ. eigenvalues --   -0.54125  -0.53404  -0.53273  -0.52832  -0.52123
 Alpha  occ. eigenvalues --   -0.51545  -0.51212  -0.50995  -0.50807  -0.50494
 Alpha  occ. eigenvalues --   -0.50080  -0.49651  -0.49400  -0.49021  -0.48472
 Alpha  occ. eigenvalues --   -0.47175  -0.47139  -0.46694  -0.46434  -0.45875
 Alpha  occ. eigenvalues --   -0.45492  -0.45099  -0.45020  -0.44169  -0.43781
 Alpha  occ. eigenvalues --   -0.43216  -0.42751  -0.42379  -0.41901  -0.41351
 Alpha  occ. eigenvalues --   -0.41265  -0.41000  -0.39475  -0.37757  -0.36776
 Alpha  occ. eigenvalues --   -0.34867  -0.34521  -0.33646  -0.33346  -0.33144
 Alpha  occ. eigenvalues --   -0.32628  -0.32083  -0.31100  -0.28976  -0.26852
 Alpha  occ. eigenvalues --   -0.25471
 Alpha virt. eigenvalues --    0.00705   0.03320   0.04154   0.04874   0.06186
 Alpha virt. eigenvalues --    0.07862   0.08494   0.10720   0.14459   0.15122
 Alpha virt. eigenvalues --    0.15435   0.16871   0.16911   0.18199   0.19021

 Mulliken atomic charges:
              1
     1  C   -0.199496
     2  C   -0.155057
     3  C    0.036333
     4  C    0.012702
     5  N   -0.444140
     6  C    0.017271
     7  C    0.283290
     8  C   -0.257142
     9  C    0.048416
    10  N   -0.495670
    11  C    0.713320
    12  N   -0.560523
    13  N   -0.806012
    14  C    0.285085
    15  C    0.120360
    16  C   -0.241650
    17  C   -0.189267
    18  C    0.360218
    19  C   -0.264146
    20  N   -0.767558
    21  C    0.587484
    22  C    0.012557
    23  C   -0.196494
    24  C   -0.213032
    25  C    0.155454
    26  C   -0.224194
    27  C   -0.176493
    28  C   -0.266303
    29  N   -0.382405
    30  C   -0.182643
    31  C   -0.188994
    32  N   -0.397971
    33  C   -0.351823
    34  C   -0.181905
    35  C   -0.186221
    36  O   -0.512177
    37  C   -0.608197
    38  H    0.179099
    39  H    0.181730
    40  H    0.181304
    41  H    0.219807
    42  H    0.181316
    43  H    0.187578
    44  H    0.368462
    45  H    0.159551
    46  H    0.211371
    47  H    0.204605
    48  H    0.365223
    49  H    0.175808
    50  H    0.165873
    51  H    0.164412
    52  H    0.197146
    53  H    0.172215
    54  H    0.169410
    55  H    0.155286
    56  H    0.158108
    57  H    0.152025
    58  H    0.188217
    59  H    0.144412
    60  H    0.164062
    61  H    0.167979
    62  H    0.154414
    63  H    0.179118
    64  H    0.158940
    65  H    0.158670
    66  H    0.182256
    67  H    0.178644
    68  H    0.189982
 Sum of Mulliken atomic charges =   0.00000

 Dipole moment (field-independent basis, Debye):
    X=              0.5681    Y=              5.6439    Z=              0.0939  Tot=              5.6732
 Quadrupole moment (field-independent basis, Debye-Ang):
   XX=           -192.4541   YY=           -209.0490   ZZ=           -212.4578
   XY=             -1.8660   XZ=             -2.2655   YZ=             -4.4457

 Normal termination of Gaussian 09 at Wed Mar  4 10:48:56 2020.
