 Gaussian 09, Revision A.02,
 Gaussian 09:  EM64L-G09RevA.02 11-Jun-2009

 --------------------------------------------------
 #P opt=(,maxcycle=400) wB97XD/6-31G* MaxDisk=100GB
 --------------------------------------------------

 --------------------------------------------------------------
 MOLECULE0 Rotatable Bond Optimization on node37.bme.utexas.edu
 --------------------------------------------------------------
 Symbolic Z-matrix:
 Charge =  0 Multiplicity = 1

 SCF Done:  E(RwB97XD) =  -1581.55668495     A.U. after   16 cycles
 SCF Done:  E(RwB97XD) =  -1581.62220032     A.U. after   13 cycles
 SCF Done:  E(RwB97XD) =  -1581.71427483     A.U. after   14 cycles
 SCF Done:  E(RwB97XD) =  -1581.74010851     A.U. after   17 cycles
 SCF Done:  E(RwB97XD) =  -1581.75767567     A.U. after   17 cycles
 SCF Done:  E(RwB97XD) =  -1581.76002391     A.U. after   14 cycles
 SCF Done:  E(RwB97XD) =  -1581.76019317     A.U. after   17 cycles
 SCF Done:  E(RwB97XD) =  -1581.76114408     A.U. after   14 cycles
 SCF Done:  E(RwB97XD) =  -1581.76145006     A.U. after   14 cycles
 SCF Done:  E(RwB97XD) =  -1581.76156697     A.U. after   13 cycles
 SCF Done:  E(RwB97XD) =  -1581.76162352     A.U. after   12 cycles
 SCF Done:  E(RwB97XD) =  -1581.76162709     A.U. after   12 cycles
 SCF Done:  E(RwB97XD) =  -1581.76163216     A.U. after   10 cycles
 SCF Done:  E(RwB97XD) =  -1581.76163327     A.U. after    8 cycles
 SCF Done:  E(RwB97XD) =  -1581.76163372     A.U. after    8 cycles
 SCF Done:  E(RwB97XD) =  -1581.76163403     A.U. after    8 cycles
 SCF Done:  E(RwB97XD) =  -1581.76163410     A.U. after    8 cycles
 SCF Done:  E(RwB97XD) =  -1581.76163413     A.U. after    7 cycles
 SCF Done:  E(RwB97XD) =  -1581.76163412     A.U. after    7 cycles
 SCF Done:  E(RwB97XD) =  -1581.76163409     A.U. after    6 cycles
 Optimization completed.
    -- Stationary point found.

                         Standard orientation:
 ---------------------------------------------------------------------
 Center     Atomic      Atomic             Coordinates (Angstroms)
 Number     Number       Type             X           Y           Z
 ---------------------------------------------------------------------
      1          6           0       -1.226741    4.806922   -0.671262
      2          6           0       -2.527778    4.351242   -0.496620
      3          6           0       -2.732814    3.055667   -0.025395
      4          6           0       -1.597357    2.284556    0.257217
      5          7           0       -0.345269    2.704003    0.085047
      6          6           0       -0.174461    3.946548   -0.376839
      7          6           0       -4.081023    2.457885    0.141333
      8          6           0       -5.243863    3.198605    0.333981
      9          6           0       -6.425506    2.465947    0.440529
     10          7           0       -6.481230    1.142187    0.383275
     11          6           0       -5.295254    0.522056    0.217225
     12          7           0       -4.114297    1.124414    0.085130
     13          7           0       -5.362230   -0.843449    0.184028
     14          6           0       -4.332041   -1.801225    0.128852
     15          6           0       -4.639864   -3.127564    0.493124
     16          6           0       -3.610387   -4.063141    0.456525
     17          6           0       -2.302381   -3.748589    0.095287
     18          6           0       -2.023480   -2.433441   -0.267471
     19          6           0       -3.040386   -1.478186   -0.272674
     20          7           0       -0.751073   -1.955704   -0.629241
     21          6           0        0.464900   -2.583614   -0.558375
     22          6           0        1.634168   -1.685711   -0.853345
     23          6           0        2.790359   -2.278333   -1.363572
     24          6           0        3.898989   -1.501408   -1.670205
     25          6           0        3.894838   -0.120957   -1.451701
     26          6           0        2.738633    0.461972   -0.932584
     27          6           0        1.620890   -0.305885   -0.629262
     28          6           0        5.126299    0.721190   -1.752961
     29          7           0        6.111193    0.906479   -0.701218
     30          6           0        6.909478   -0.251520   -0.315632
     31          6           0        6.334210   -1.033167    0.877857
     32          7           0        6.042681   -0.183454    2.029437
     33          6           0        7.223919    0.246017    2.756409
     34          6           0        5.165820    0.912075    1.625493
     35          6           0        5.724216    1.722781    0.443622
     36          8           0        0.608219   -3.768050   -0.301304
     37          6           0       -6.031215   -3.521043    0.920204
     38          1           0       -1.029885    5.805526   -1.046201
     39          1           0       -3.369731    4.988118   -0.752519
     40          1           0       -1.724034    1.278653    0.648698
     41          1           0        0.855239    4.265934   -0.519716
     42          1           0       -5.245336    4.278507    0.415591
     43          1           0       -7.376845    2.974294    0.583998
     44          1           0       -6.299702   -1.186188    0.331726
     45          1           0       -3.835431   -5.089453    0.735482
     46          1           0       -1.520504   -4.494520    0.098286
     47          1           0       -2.820770   -0.461571   -0.562394
     48          1           0       -0.737365   -0.997468   -0.944444
     49          1           0        2.798201   -3.352129   -1.520137
     50          1           0        4.786380   -1.973426   -2.086080
     51          1           0        2.703305    1.533434   -0.750042
     52          1           0        0.763110    0.198514   -0.191379
     53          1           0        5.648944    0.280651   -2.611279
     54          1           0        4.797398    1.720223   -2.066336
     55          1           0        7.019852   -0.910851   -1.184152
     56          1           0        7.918764    0.104182   -0.059315
     57          1           0        7.036394   -1.817083    1.186413
     58          1           0        5.399449   -1.524074    0.582853
     59          1           0        7.925168    0.884763    2.190739
     60          1           0        7.777289   -0.637997    3.091687
     61          1           0        6.912562    0.803165    3.646883
     62          1           0        5.001290    1.570272    2.487272
     63          1           0        4.197082    0.478042    1.352415
     64          1           0        6.613194    2.278187    0.778226
     65          1           0        4.991889    2.468869    0.114529
     66          1           0       -6.771399   -3.363777    0.123642
     67          1           0       -6.364735   -2.956204    1.800372
     68          1           0       -6.066953   -4.581579    1.181854
 ---------------------------------------------------------------------

 The electronic state is 1-A.
 Alpha  occ. eigenvalues --  -19.23347 -14.49256 -14.48457 -14.46728 -14.46087
 Alpha  occ. eigenvalues --  -14.45740 -14.43379 -14.42722 -10.41748 -10.40127
 Alpha  occ. eigenvalues --  -10.37599 -10.36338 -10.35289 -10.35028 -10.34637
 Alpha  occ. eigenvalues --  -10.34135 -10.34067 -10.33598 -10.32848 -10.32292
 Alpha  occ. eigenvalues --  -10.31856 -10.31038 -10.30996 -10.30955 -10.30710
 Alpha  occ. eigenvalues --  -10.30699 -10.30370 -10.30280 -10.30256 -10.30235
 Alpha  occ. eigenvalues --  -10.30232 -10.30117 -10.30111 -10.30033 -10.29533
 Alpha  occ. eigenvalues --  -10.28846 -10.28335  -1.13492  -1.12301  -1.06306
 Alpha  occ. eigenvalues --   -1.04558  -1.03602  -1.03553  -1.00718  -0.99258
 Alpha  occ. eigenvalues --   -0.96019  -0.94681  -0.93090  -0.89763  -0.88059
 Alpha  occ. eigenvalues --   -0.87362  -0.86237  -0.85108  -0.84471  -0.83761
 Alpha  occ. eigenvalues --   -0.81666  -0.79491  -0.78258  -0.77659  -0.76306
 Alpha  occ. eigenvalues --   -0.73858  -0.72955  -0.72946  -0.72598  -0.70813
 Alpha  occ. eigenvalues --   -0.70268  -0.69518  -0.67961  -0.66409  -0.65193
 Alpha  occ. eigenvalues --   -0.63616  -0.63255  -0.62260  -0.61800  -0.60197
 Alpha  occ. eigenvalues --   -0.58814  -0.57958  -0.57454  -0.56468  -0.56069
 Alpha  occ. eigenvalues --   -0.55802  -0.55145  -0.54950  -0.54630  -0.54225
 Alpha  occ. eigenvalues --   -0.53567  -0.53187  -0.52973  -0.52334  -0.52180
 Alpha  occ. eigenvalues --   -0.51854  -0.51495  -0.51333  -0.50900  -0.50593
 Alpha  occ. eigenvalues --   -0.50458  -0.50178  -0.49951  -0.49426  -0.48310
 Alpha  occ. eigenvalues --   -0.47275  -0.46728  -0.46452  -0.46285  -0.45987
 Alpha  occ. eigenvalues --   -0.45575  -0.44874  -0.44525  -0.43927  -0.43717
 Alpha  occ. eigenvalues --   -0.43438  -0.43047  -0.42064  -0.41690  -0.41204
 Alpha  occ. eigenvalues --   -0.40646  -0.40591  -0.39935  -0.38200  -0.37598
 Alpha  occ. eigenvalues --   -0.35782  -0.35283  -0.33997  -0.33447  -0.33339
 Alpha  occ. eigenvalues --   -0.32836  -0.31833  -0.30556  -0.29157  -0.27089
 Alpha  occ. eigenvalues --   -0.24671
 Alpha virt. eigenvalues --   -0.00297   0.02900   0.03363   0.04521   0.06516
 Alpha virt. eigenvalues --    0.07280   0.08337   0.10417   0.14541   0.14890
 Alpha virt. eigenvalues --    0.15956   0.16292   0.17361   0.17725   0.18683

 Mulliken atomic charges:
              1
     1  C   -0.197805
     2  C   -0.155246
     3  C    0.035191
     4  C    0.006866
     5  N   -0.435289
     6  C    0.031069
     7  C    0.295592
     8  C   -0.255122
     9  C    0.048869
    10  N   -0.492953
    11  C    0.712266
    12  N   -0.567559
    13  N   -0.800039
    14  C    0.290076
    15  C    0.119870
    16  C   -0.240162
    17  C   -0.189958
    18  C    0.357115
    19  C   -0.267477
    20  N   -0.767234
    21  C    0.599422
    22  C    0.016453
    23  C   -0.176853
    24  C   -0.223306
    25  C    0.159707
    26  C   -0.228604
    27  C   -0.208126
    28  C   -0.262968
    29  N   -0.380704
    30  C   -0.186277
    31  C   -0.183431
    32  N   -0.383584
    33  C   -0.349526
    34  C   -0.182817
    35  C   -0.184775
    36  O   -0.516469
    37  C   -0.608197
    38  H    0.186489
    39  H    0.186331
    40  H    0.201313
    41  H    0.181243
    42  H    0.180750
    43  H    0.189377
    44  H    0.369157
    45  H    0.160915
    46  H    0.215609
    47  H    0.195941
    48  H    0.359664
    49  H    0.198334
    50  H    0.163886
    51  H    0.166919
    52  H    0.188287
    53  H    0.168952
    54  H    0.166648
    55  H    0.152158
    56  H    0.159069
    57  H    0.153104
    58  H    0.173785
    59  H    0.133783
    60  H    0.167294
    61  H    0.166559
    62  H    0.152230
    63  H    0.173961
    64  H    0.158552
    65  H    0.149561
    66  H    0.177714
    67  H    0.183641
    68  H    0.190756
 Sum of Mulliken atomic charges =   0.00000

 Dipole moment (field-independent basis, Debye):
    X=             -2.5381    Y=              6.1216    Z=             -1.0843  Tot=              6.7150
 Quadrupole moment (field-independent basis, Debye-Ang):
   XX=           -189.8159   YY=           -196.2288   ZZ=           -219.0752
   XY=             -6.1419   XZ=             -5.5454   YZ=             -1.6446

 Normal termination of Gaussian 09 at Wed Apr  8 23:36:32 2020.
