                               Psi4 1.3.2 release

  ==> Input File <==

--------------------------------------------------------------------------
molecule {
0 1
 C   -0.079253    4.754745   -0.155739
 C    1.277284    4.550810    0.132774
 C    1.827013    3.255245    0.055838
 C    0.932505    2.233051   -0.346250
 N   -0.363049    2.407312   -0.633963
 C   -0.854785    3.651071   -0.528945
 C    3.271953    2.940751    0.358531
 C    4.262502    3.887458    0.666490
 C    5.545368    3.374544    0.885929
 N    5.857936    2.083277    0.833874
 C    4.840276    1.242202    0.552444
 N    3.583700    1.629664    0.314788
 N    5.179609   -0.102367    0.524600
 C    4.455358   -1.307524    0.205652
 C    5.182689   -2.504323   -0.075031
 C    4.435160   -3.652714   -0.385828
 C    3.036704   -3.686572   -0.426768
 C    2.339393   -2.508270   -0.141657
 C    3.055836   -1.340268    0.165257
 N    0.919509   -2.358194   -0.160168
 C   -0.086029   -3.291716   -0.085129
 C   -1.493982   -2.829467   -0.404770
 C   -1.780101   -1.866774   -1.386847
 C   -3.095520   -1.457726   -1.614614
 C   -4.168516   -1.997880   -0.881775
 C   -3.868904   -2.974003    0.088205
 C   -2.557603   -3.398344    0.314307
 C   -5.599590   -1.499188   -1.086208
 N   -6.046874   -0.281066   -0.386054
 C   -5.578359    1.041421   -0.861648
 C   -4.366313    1.652999   -0.111057
 N   -4.509794    1.663916    1.363905
 C   -5.279478    2.773563    1.939886
 C   -4.879280    0.303245    1.816469
 C   -6.108274   -0.304908    1.093535
 O    0.120167   -4.448607    0.242960
 C    6.699768   -2.585323   -0.062441
 H   -0.526183    5.742522   -0.090930
 H    1.873715    5.409513    0.431215
 H    1.292600    1.217048   -0.461089
 H   -1.911592    3.765413   -0.762338
 H    4.088345    4.955377    0.714487
 H    6.372804    4.044898    1.116485
 H    6.170273   -0.199893    0.689947
 H    4.957379   -4.582590   -0.607944
 H    2.498794   -4.597070   -0.662557
 H    2.520726   -0.432136    0.395156
 H    0.608339   -1.411385   -0.328101
 H   -0.968007   -1.433105   -1.964953
 H   -3.282665   -0.696162   -2.371715
 H   -4.667962   -3.413169    0.685055
 H   -2.334766   -4.152322    1.065076
 H   -5.756336   -1.323822   -2.160515
 H   -6.289970   -2.301912   -0.788016
 H   -5.400956    1.019905   -1.992967
 H   -6.770593    2.060319   -0.605768
 H   -4.153746    2.646247   -0.456404
 H   -3.220658    0.863700   -0.401680
 H   -6.330667    2.724634    1.634155
 H   -4.861846    3.732701    1.612914
 H   -5.228196    2.741082    3.034137
 H   -5.094156    0.323809    3.122433
 H   -3.703169   -0.589125    1.549322
 H   -7.320774    0.589343    1.511182
 H   -6.328054   -1.317536    1.453459
 H    7.102458   -2.389163    0.941422
 H    7.147904   -1.852009   -0.747791
 H    7.079824   -3.570352   -0.366786
}
memory 20GB
set_num_threads(6)
psi4_io.set_default_path("/scratch/bdw2292")
set freeze_core True
E, wfn = energy('mp2/6-311++G**',return_wfn=True)
oeprop(wfn,"WIBERG_LOWDIN_INDICES")
clean()
--------------------------------------------------------------------------

    Molecular point group: c1

    Geometry (in Angstrom), charge = 0, multiplicity = 1:

       Center              X                  Y                   Z               Mass
    ------------   -----------------  -----------------  -----------------  -----------------
         C           -0.181288017068     4.777931008573    -0.220135957499    12.000000000000
         C            1.175248982932     4.573996008573     0.068377042501    12.000000000000
         C            1.724977982932     3.278431008573    -0.008558957499    12.000000000000
         C            0.830469982932     2.256237008573    -0.410646957499    12.000000000000
         N           -0.465084017068     2.430498008573    -0.698359957499    14.003074004430
         C           -0.956820017068     3.674257008573    -0.593341957499    12.000000000000
         C            3.169917982932     2.963937008573     0.294134042501    12.000000000000
         C            4.160466982932     3.910644008573     0.602093042501    12.000000000000
         C            5.443332982932     3.397730008573     0.821532042501    12.000000000000
         N            5.755900982932     2.106463008573     0.769477042501    14.003074004430
         C            4.738240982932     1.265388008573     0.488047042501    12.000000000000
         N            3.481664982932     1.652850008573     0.250391042501    14.003074004430
         N            5.077573982932    -0.079180991427     0.460203042501    14.003074004430
         C            4.353322982932    -1.284337991427     0.141255042501    12.000000000000
         C            5.080653982932    -2.481136991427    -0.139427957499    12.000000000000
         C            4.333124982932    -3.629527991427    -0.450224957499    12.000000000000
         C            2.934668982932    -3.663385991427    -0.491164957499    12.000000000000
         C            2.237357982932    -2.485083991427    -0.206053957499    12.000000000000
         C            2.953800982932    -1.317081991427     0.100860042501    12.000000000000
         N            0.817473982932    -2.335007991427    -0.224564957499    14.003074004430
         C           -0.188064017068    -3.268529991427    -0.149525957499    12.000000000000
         C           -1.596017017068    -2.806280991427    -0.469166957499    12.000000000000
         C           -1.882136017068    -1.843587991427    -1.451243957499    12.000000000000
         C           -3.197555017068    -1.434539991427    -1.679010957499    12.000000000000
         C           -4.270551017068    -1.974693991427    -0.946171957499    12.000000000000
         C           -3.970939017068    -2.950816991427     0.023808042501    12.000000000000
         C           -2.659638017068    -3.375157991427     0.249910042501    12.000000000000
         C           -5.701625017068    -1.476001991427    -1.150604957499    12.000000000000
         N           -6.148909017068    -0.257879991427    -0.450450957499    14.003074004430
         C           -5.680394017068     1.064607008573    -0.926044957499    12.000000000000
         C           -4.468348017068     1.676185008573    -0.175453957499    12.000000000000
         N           -4.611829017068     1.687102008573     1.299508042501    14.003074004430
         C           -5.381513017068     2.796749008573     1.875489042501    12.000000000000
         C           -4.981315017068     0.326431008573     1.752072042501    12.000000000000
         C           -6.210309017068    -0.281721991427     1.029138042501    12.000000000000
         O            0.018131982932    -4.425420991427     0.178563042501    15.994914619570
         C            6.597732982932    -2.562136991427    -0.126837957499    12.000000000000
         H           -0.628218017068     5.765708008573    -0.155326957499     1.007825032230
         H            1.771679982932     5.432699008573     0.366818042501     1.007825032230
         H            1.190564982932     1.240234008573    -0.525485957499     1.007825032230
         H           -2.013627017068     3.788599008573    -0.826734957499     1.007825032230
         H            3.986309982932     4.978563008573     0.650090042501     1.007825032230
         H            6.270768982932     4.068084008573     1.052088042501     1.007825032230
         H            6.068237982932    -0.176706991427     0.625550042501     1.007825032230
         H            4.855343982932    -4.559403991427    -0.672340957499     1.007825032230
         H            2.396758982932    -4.573883991427    -0.726953957499     1.007825032230
         H            2.418690982932    -0.408949991427     0.330759042501     1.007825032230
         H            0.506303982932    -1.388198991427    -0.392497957499     1.007825032230
         H           -1.070042017068    -1.409918991427    -2.029349957499     1.007825032230
         H           -3.384700017068    -0.672975991427    -2.436111957499     1.007825032230
         H           -4.769997017068    -3.389982991427     0.620658042501     1.007825032230
         H           -2.436801017068    -4.129135991427     1.000679042501     1.007825032230
         H           -5.858371017068    -1.300635991427    -2.224911957499     1.007825032230
         H           -6.392005017068    -2.278725991427    -0.852412957499     1.007825032230
         H           -5.502991017068     1.043091008573    -2.057363957499     1.007825032230
         H           -6.872628017068     2.083505008573    -0.670164957499     1.007825032230
         H           -4.255781017068     2.669433008573    -0.520800957499     1.007825032230
         H           -3.322693017068     0.886886008573    -0.466076957499     1.007825032230
         H           -6.432702017068     2.747820008573     1.569758042501     1.007825032230
         H           -4.963881017068     3.755887008573     1.548517042501     1.007825032230
         H           -5.330231017068     2.764268008573     2.969740042501     1.007825032230
         H           -5.196191017068     0.346995008573     3.058036042501     1.007825032230
         H           -3.805204017068    -0.565938991427     1.484925042501     1.007825032230
         H           -7.422809017068     0.612529008573     1.446785042501     1.007825032230
         H           -6.430089017068    -1.294349991427     1.389062042501     1.007825032230
         H            7.000422982932    -2.365976991427     0.877025042501     1.007825032230
         H            7.045868982932    -1.828822991427    -0.812187957499     1.007825032230
         H            6.977788982932    -3.547165991427    -0.431182957499     1.007825032230

  Charge       = 0
  Multiplicity = 1
  Basis Set: 6-311++G**
    Blend: 6-311++G**
  Basis Set: (6-311++G** AUX)
    Blend: AUG-CC-PVTZ-JKFIT

    Orbital Energies [Eh]
    ---------------------

    Doubly Occupied:

       1A    -20.521209     2A    -15.602721     3A    -15.600219
       4A    -15.582082     5A    -15.574285     6A    -15.572532
       7A    -15.568110     8A    -15.557311     9A    -11.374202
      10A    -11.364039    11A    -11.332764    12A    -11.317663
      13A    -11.316269    14A    -11.312393    15A    -11.309221
      16A    -11.301223    17A    -11.297042    18A    -11.296621
      19A    -11.291548    20A    -11.288907    21A    -11.285883
      22A    -11.281145    23A    -11.276770    24A    -11.261801
      25A    -11.259224    26A    -11.258953    27A    -11.257149
      28A    -11.251397    29A    -11.250483    30A    -11.249141
      31A    -11.248771    32A    -11.247750    33A    -11.247726
      34A    -11.240381    35A    -11.235652    36A    -11.230863
      37A    -11.227276    38A     -1.387205    39A     -1.342928
      40A     -1.274048    41A     -1.251268    42A     -1.246973
      43A     -1.240639    44A     -1.207895    45A     -1.202738
      46A     -1.164116    47A     -1.139567    48A     -1.112553
      49A     -1.073211    50A     -1.060930    51A     -1.045777
      52A     -1.038048    53A     -1.026478    54A     -1.007926
      55A     -1.000202    56A     -0.978918    57A     -0.947067
      58A     -0.929052    59A     -0.923710    60A     -0.899295
      61A     -0.869768    62A     -0.868261    63A     -0.855257
      64A     -0.848562    65A     -0.842914    66A     -0.832056
      67A     -0.824368    68A     -0.807124    69A     -0.778645
      70A     -0.752443    71A     -0.739129    72A     -0.730840
      73A     -0.720212    74A     -0.701851    75A     -0.695022
      76A     -0.681706    77A     -0.679065    78A     -0.665531
      79A     -0.661981    80A     -0.655274    81A     -0.651934
      82A     -0.647425    83A     -0.637484    84A     -0.630612
      85A     -0.623296    86A     -0.620186    87A     -0.616905
      88A     -0.613398    89A     -0.605613    90A     -0.603569
      91A     -0.601932    92A     -0.598004    93A     -0.594636
      94A     -0.589547    95A     -0.585468    96A     -0.580599
      97A     -0.579206    98A     -0.570896    99A     -0.566428
     100A     -0.557527   101A     -0.548799   102A     -0.541934
     103A     -0.539725   104A     -0.526683   105A     -0.525570
     106A     -0.523681   107A     -0.513308   108A     -0.508482
     109A     -0.507753   110A     -0.503375   111A     -0.497728
     112A     -0.492358   113A     -0.484142   114A     -0.480713
     115A     -0.473110   116A     -0.449852   117A     -0.438627
     118A     -0.432370   119A     -0.425449   120A     -0.423564
     121A     -0.412724   122A     -0.396708   123A     -0.387352
     124A     -0.379912   125A     -0.371929   126A     -0.347322
     127A     -0.344204   128A     -0.343181   129A     -0.315866
     130A     -0.310822   131A     -0.290357

  @DF-RHF Final Energy: -1572.32321630595561

   => Energetics <=

    Nuclear Repulsion Energy =           3764.8776002242589129
    One-Electron Energy =               -9627.9745425080182031
    Two-Electron Energy =                4290.7737259778032239
    Total Energy =                      -1572.3232163059556115

  Dipole Moment: [D]
     X:     0.9716      Y:     6.3018      Z:    -0.8940     Total:     6.4386

  Basis Set: (6-311++G** AUX)
    Blend: AUG-CC-PVTZ-RI
	 Reference Energy          =   -1572.3232163059556115 [Eh]
	 Singles Energy            =      -0.0000000000000000 [Eh]
	 Same-Spin Energy          =      -1.4718238486345885 [Eh]
	 Opposite-Spin Energy      =      -4.0502955215588754 [Eh]
	 Correlation Energy        =      -5.5221193701934634 [Eh]
	 Total Energy              =   -1577.8453356761490340 [Eh]

	 ================> DF-SCS-MP2 Energies <==================
	-----------------------------------------------------------
	 SCS Same-Spin Scale       =       0.3333333333333333 [-]
	 SCS Opposite-Spin Scale   =       1.2000000000000000 [-]
	 SCS Same-Spin Energy      =      -0.4906079495448628 [Eh]
	 SCS Opposite-Spin Energy  =      -4.8603546258706505 [Eh]
	 SCS Correlation Energy    =      -5.3509625754155135 [Eh]
	 SCS Total Energy          =   -1577.6741788813710627 [Eh]
	-----------------------------------------------------------

*** Psi4 exiting successfully. Buy a developer a beer!
