                               Psi4 1.3.2 release

  ==> Input File <==

--------------------------------------------------------------------------
molecule {
0 1
 C   -0.117549    4.752282   -0.221381
 C    1.225795    4.548479    0.120807
 C    1.796643    3.266826   -0.004756
 C    0.942024    2.257669   -0.512056
 N   -0.340002    2.435385   -0.855050
 C   -0.856018    3.664395   -0.700328
 C    3.227487    2.947882    0.348632
 C    4.209825    3.898124    0.673809
 C    5.490632    3.391777    0.923289
 N    5.806265    2.099251    0.886509
 C    4.796374    1.255753    0.591060
 N    3.547064    1.640158    0.325079
 N    5.136074   -0.085062    0.579394
 C    4.418049   -1.291558    0.254594
 C    5.148372   -2.491863   -0.003910
 C    4.409027   -3.640358   -0.332528
 C    3.012551   -3.672833   -0.416548
 C    2.306709   -2.498381   -0.136166
 C    3.019045   -1.332216    0.185473
 N    0.885413   -2.359795   -0.172933
 C   -0.115211   -3.301101   -0.116201
 C   -1.518411   -2.838427   -0.456021
 C   -1.801756   -1.875419   -1.438654
 C   -3.114033   -1.444861   -1.647824
 C   -4.189209   -1.977846   -0.912189
 C   -3.894697   -2.979295    0.033622
 C   -2.585724   -3.414385    0.251871
 C   -5.614435   -1.449439   -1.085670
 N   -6.035741   -0.240056   -0.357625
 C   -5.558205    1.088233   -0.805606
 C   -4.293845    1.620907   -0.081538
 N   -4.399791    1.599519    1.398094
 C   -5.106893    2.723821    2.023629
 C   -4.806273    0.239782    1.829036
 C   -6.080921   -0.288477    1.121864
 O    0.091882   -4.459024    0.208743
 C    6.665184   -2.571840    0.045384
 H   -0.582059    5.728527   -0.119514
 H    1.797488    5.390168    0.503813
 H    1.318370    1.253036   -0.676364
 H   -1.901474    3.773265   -0.983239
 H    4.040850    4.967341    0.709514
 H    6.329318    4.044090    1.164595
 H    6.123284   -0.176822    0.765446
 H    4.938222   -4.569276   -0.541942
 H    2.478848   -4.584777   -0.654818
 H    2.472018   -0.431774    0.414129
 H    0.568207   -1.414781   -0.339718
 H   -0.988471   -1.449939   -2.021282
 H   -3.296907   -0.666820   -2.388799
 H   -4.695573   -3.414711    0.630116
 H   -2.371110   -4.182202    0.991275
 H   -5.780820   -1.250187   -2.153760
 H   -6.313439   -2.246311   -0.794131
 H   -5.382874    1.089567   -2.066635
 H   -6.666286    2.056289   -0.531325
 H   -4.055652    2.654648   -0.419554
 H   -3.251468    0.875263   -0.398302
 H   -6.166485    2.725798    1.743588
 H   -4.657368    3.673858    1.712011
 H   -5.030016    2.658508    3.115164
 H   -4.954735    0.230112    3.057106
 H   -3.702625   -0.641711    1.526630
 H   -7.202131    0.543273    1.545926
 H   -6.335716   -1.455854    1.507588
 H    7.066932   -2.370640    1.048871
 H    7.119777   -1.847280   -0.636069
 H    7.046085   -3.553860   -0.246786
}
memory 20GB
set_num_threads(6)
psi4_io.set_default_path("/scratch/bdw2292")
set freeze_core True
E, wfn = energy('mp2/6-311++G**',return_wfn=True)
oeprop(wfn,"WIBERG_LOWDIN_INDICES")
clean()
--------------------------------------------------------------------------

    Molecular point group: c1

    Geometry (in Angstrom), charge = 0, multiplicity = 1:

       Center              X                  Y                   Z               Mass
    ------------   -----------------  -----------------  -----------------  -----------------
         C           -0.210323146868     4.771618970492    -0.279118489151    12.000000000000
         C            1.133020853132     4.567815970492     0.063069510849    12.000000000000
         C            1.703868853132     3.286162970492    -0.062493489151    12.000000000000
         C            0.849249853132     2.277005970492    -0.569793489151    12.000000000000
         N           -0.432776146868     2.454721970492    -0.912787489151    14.003074004430
         C           -0.948792146868     3.683731970492    -0.758065489151    12.000000000000
         C            3.134712853132     2.967218970492     0.290894510849    12.000000000000
         C            4.117050853132     3.917460970492     0.616071510849    12.000000000000
         C            5.397857853132     3.411113970492     0.865551510849    12.000000000000
         N            5.713490853132     2.118587970492     0.828771510849    14.003074004430
         C            4.703599853132     1.275089970492     0.533322510849    12.000000000000
         N            3.454289853132     1.659494970492     0.267341510849    14.003074004430
         N            5.043299853132    -0.065725029508     0.521656510849    14.003074004430
         C            4.325274853132    -1.272221029508     0.196856510849    12.000000000000
         C            5.055597853132    -2.472526029508    -0.061647489151    12.000000000000
         C            4.316252853132    -3.621021029508    -0.390265489151    12.000000000000
         C            2.919776853132    -3.653496029508    -0.474285489151    12.000000000000
         C            2.213934853132    -2.479044029508    -0.193903489151    12.000000000000
         C            2.926270853132    -1.312879029508     0.127735510849    12.000000000000
         N            0.792638853132    -2.340458029508    -0.230670489151    14.003074004430
         C           -0.207985146868    -3.281764029508    -0.173938489151    12.000000000000
         C           -1.611185146868    -2.819090029508    -0.513758489151    12.000000000000
         C           -1.894530146868    -1.856082029508    -1.496391489151    12.000000000000
         C           -3.206807146868    -1.425524029508    -1.705561489151    12.000000000000
         C           -4.281983146868    -1.958509029508    -0.969926489151    12.000000000000
         C           -3.987471146868    -2.959958029508    -0.024115489151    12.000000000000
         C           -2.678498146868    -3.395048029508     0.194133510849    12.000000000000
         C           -5.707209146868    -1.430102029508    -1.143407489151    12.000000000000
         N           -6.128515146868    -0.220719029508    -0.415362489151    14.003074004430
         C           -5.650979146868     1.107569970492    -0.863343489151    12.000000000000
         C           -4.386619146868     1.640243970492    -0.139275489151    12.000000000000
         N           -4.492565146868     1.618855970492     1.340356510849    14.003074004430
         C           -5.199667146868     2.743157970492     1.965891510849    12.000000000000
         C           -4.899047146868     0.259118970492     1.771298510849    12.000000000000
         C           -6.173695146868    -0.269140029508     1.064126510849    12.000000000000
         O           -0.000892146868    -4.439687029508     0.151005510849    15.994914619570
         C            6.572409853132    -2.552503029508    -0.012353489151    12.000000000000
         H           -0.674833146868     5.747863970492    -0.177251489151     1.007825032230
         H            1.704713853132     5.409504970492     0.446075510849     1.007825032230
         H            1.225595853132     1.272372970492    -0.734101489151     1.007825032230
         H           -1.994248146868     3.792601970492    -1.040976489151     1.007825032230
         H            3.948075853132     4.986677970492     0.651776510849     1.007825032230
         H            6.236543853132     4.063426970492     1.106857510849     1.007825032230
         H            6.030509853132    -0.157485029508     0.707708510849     1.007825032230
         H            4.845447853132    -4.549939029508    -0.599679489151     1.007825032230
         H            2.386073853132    -4.565440029508    -0.712555489151     1.007825032230
         H            2.379243853132    -0.412437029508     0.356391510849     1.007825032230
         H            0.475432853132    -1.395444029508    -0.397455489151     1.007825032230
         H           -1.081245146868    -1.430602029508    -2.079019489151     1.007825032230
         H           -3.389681146868    -0.647483029508    -2.446536489151     1.007825032230
         H           -4.788347146868    -3.395374029508     0.572378510849     1.007825032230
         H           -2.463884146868    -4.162865029508     0.933537510849     1.007825032230
         H           -5.873594146868    -1.230850029508    -2.211497489151     1.007825032230
         H           -6.406213146868    -2.226974029508    -0.851868489151     1.007825032230
         H           -5.475648146868     1.108903970492    -2.124372489151     1.007825032230
         H           -6.759060146868     2.075625970492    -0.589062489151     1.007825032230
         H           -4.148426146868     2.673984970492    -0.477291489151     1.007825032230
         H           -3.344242146868     0.894599970492    -0.456039489151     1.007825032230
         H           -6.259259146868     2.745134970492     1.685850510849     1.007825032230
         H           -4.750142146868     3.693194970492     1.654273510849     1.007825032230
         H           -5.122790146868     2.677844970492     3.057426510849     1.007825032230
         H           -5.047509146868     0.249448970492     2.999368510849     1.007825032230
         H           -3.795399146868    -0.622374029508     1.468892510849     1.007825032230
         H           -7.294905146868     0.562609970492     1.488188510849     1.007825032230
         H           -6.428490146868    -1.436517029508     1.449850510849     1.007825032230
         H            6.974157853132    -2.351303029508     0.991133510849     1.007825032230
         H            7.027002853132    -1.827943029508    -0.693806489151     1.007825032230
         H            6.953310853132    -3.534523029508    -0.304523489151     1.007825032230

  Charge       = 0
  Multiplicity = 1
  Basis Set: 6-311++G**
    Blend: 6-311++G**
  Basis Set: (6-311++G** AUX)
    Blend: AUG-CC-PVTZ-JKFIT

    Orbital Energies [Eh]
    ---------------------

    Doubly Occupied:

       1A    -20.520866     2A    -15.602468     3A    -15.599693
       4A    -15.582130     5A    -15.571536     6A    -15.569270
       7A    -15.567128     8A    -15.553756     9A    -11.372765
      10A    -11.363712    11A    -11.332442    12A    -11.320153
      13A    -11.315462    14A    -11.311885    15A    -11.304263
      16A    -11.301049    17A    -11.297183    18A    -11.296639
      19A    -11.290925    20A    -11.285928    21A    -11.282851
      22A    -11.276868    23A    -11.276700    24A    -11.262093
      25A    -11.258012    26A    -11.256908    27A    -11.256105
      28A    -11.250343    29A    -11.249794    30A    -11.249048
      31A    -11.247472    32A    -11.247399    33A    -11.245650
      34A    -11.239844    35A    -11.233798    36A    -11.230504
      37A    -11.226673    38A     -1.386353    39A     -1.343612
      40A     -1.274022    41A     -1.250625    42A     -1.244080
      43A     -1.240847    44A     -1.207665    45A     -1.199279
      46A     -1.162458    47A     -1.139252    48A     -1.112879
      49A     -1.073011    50A     -1.059434    51A     -1.045530
      52A     -1.037235    53A     -1.024776    54A     -1.007497
      55A     -0.993017    56A     -0.976789    57A     -0.947097
      58A     -0.928392    59A     -0.923780    60A     -0.899167
      61A     -0.869823    62A     -0.865352    63A     -0.855376
      64A     -0.842829    65A     -0.836714    66A     -0.827300
      67A     -0.823003    68A     -0.805363    69A     -0.778163
      70A     -0.752646    71A     -0.738223    72A     -0.730124
      73A     -0.720314    74A     -0.703215    75A     -0.694463
      76A     -0.681203    77A     -0.669899    78A     -0.665002
      79A     -0.657518    80A     -0.654053    81A     -0.651708
      82A     -0.640260    83A     -0.636493    84A     -0.629611
      85A     -0.621596    86A     -0.618183    87A     -0.615989
      88A     -0.606703    89A     -0.605806    90A     -0.603421
      91A     -0.599487    92A     -0.595337    93A     -0.593063
      94A     -0.588557    95A     -0.584829    96A     -0.579907
      97A     -0.579073    98A     -0.572283    99A     -0.564000
     100A     -0.557574   101A     -0.548579   102A     -0.541505
     103A     -0.531501   104A     -0.525016   105A     -0.523096
     106A     -0.519949   107A     -0.513346   108A     -0.512012
     109A     -0.507485   110A     -0.505759   111A     -0.504289
     112A     -0.493750   113A     -0.483430   114A     -0.480312
     115A     -0.463099   116A     -0.449282   117A     -0.439108
     118A     -0.435580   119A     -0.427833   120A     -0.423383
     121A     -0.412294   122A     -0.407950   123A     -0.396713
     124A     -0.381077   125A     -0.371830   126A     -0.345899
     127A     -0.343596   128A     -0.342649   129A     -0.315581
     130A     -0.312431   131A     -0.289940

  @DF-RHF Final Energy: -1572.36886888282652

   => Energetics <=

    Nuclear Repulsion Energy =           3770.7469283491218448
    One-Electron Energy =               -9640.0539114719686040
    Two-Electron Energy =                4296.9381142400206954
    Total Energy =                      -1572.3688688828260638

  Dipole Moment: [D]
     X:     0.6222      Y:     6.5943      Z:    -0.4607     Total:     6.6396

  Basis Set: (6-311++G** AUX)
    Blend: AUG-CC-PVTZ-RI
	 Reference Energy          =   -1572.3688688828265185 [Eh]
	 Singles Energy            =      -0.0000000000000000 [Eh]
	 Same-Spin Energy          =      -1.4713117496789074 [Eh]
	 Opposite-Spin Energy      =      -4.0478174612050193 [Eh]
	 Correlation Energy        =      -5.5191292108839267 [Eh]
	 Total Energy              =   -1577.8879980937103937 [Eh]

	 ================> DF-SCS-MP2 Energies <==================
	-----------------------------------------------------------
	 SCS Same-Spin Scale       =       0.3333333333333333 [-]
	 SCS Opposite-Spin Scale   =       1.2000000000000000 [-]
	 SCS Same-Spin Energy      =      -0.4904372498929691 [Eh]
	 SCS Opposite-Spin Energy  =      -4.8573809534460226 [Eh]
	 SCS Correlation Energy    =      -5.3478182033389920 [Eh]
	 SCS Total Energy          =   -1577.7166870861656207 [Eh]
	-----------------------------------------------------------

*** Psi4 exiting successfully. Buy a developer a beer!
