                               Psi4 1.3.2 release

  ==> Input File <==

--------------------------------------------------------------------------
molecule {
0 1
 C   -1.778941    4.960942   -3.271710
 C   -2.662860    4.771424   -2.201189
 C   -2.873114    3.478426   -1.680655
 C   -2.148497    2.433102   -2.306193
 N   -1.300344    2.598548   -3.329883
 C   -1.124120    3.842408   -3.797800
 C   -3.805189    3.186180   -0.531985
 C   -4.571855    4.141866    0.157277
 C   -5.370846    3.650632    1.196026
 N   -5.438614    2.370791    1.550649
 C   -4.667097    1.530968    0.831807
 N   -3.868678    1.889585   -0.172865
 N   -4.731130    0.208917    1.191457
 C   -4.119036   -0.941144    0.626321
 C   -4.922280   -1.871273   -0.092917
 C   -4.270658   -2.993959   -0.625212
 C   -2.897690   -3.228885   -0.489525
 C   -2.124119   -2.298291    0.215542
 C   -2.745394   -1.164306    0.768847
 N   -0.712469   -2.400547    0.438530
 C    0.234737   -3.186609   -0.177629
 C    1.687576   -2.979489    0.202226
 C    2.102217   -2.594598    1.487624
 C    3.457934   -2.410901    1.768116
 C    4.444303   -2.610161    0.783940
 C    4.017053   -3.031314   -0.489791
 C    2.663877   -3.219540   -0.778714
 C    5.927130   -2.395442    1.092148
 N    6.470153   -1.028744    1.007244
 C    6.207547   -0.071520    2.103579
 C    5.005709    0.873137    1.846111
 N    5.070986    1.604594    0.559510
 C    5.901473    2.814850    0.531869
 C    5.290109    0.631579   -0.539114
 C    6.475254   -0.341809   -0.304291
 O   -0.053833   -4.021405   -1.020018
 C   -6.412748   -1.674693   -0.305553
 H   -1.600951    5.948014   -3.688443
 H   -3.169794    5.643406   -1.795191
 H   -2.266054    1.410743   -1.957026
 H   -0.428117    3.942252   -4.629010
 H   -4.571241    5.200031   -0.073277
 H   -5.994515    4.328948    1.777405
 H   -5.348406    0.021745    1.968628
 H   -4.847782   -3.727630   -1.186612
 H   -2.433681   -4.104467   -0.926833
 H   -2.178946   -0.418737    1.310173
 H   -0.331315   -1.627521    0.965093
 H    1.360084   -2.443176    2.267388
 H    3.748010   -2.107603    2.774386
 H    4.747213   -3.211217   -1.278095
 H    2.342755   -3.544122   -1.765437
 H    6.133986   -2.769976    2.105289
 H    6.518351   -3.019677    0.406312
 H    6.147628   -0.564437    3.023850
 H    7.467813    0.875542    2.188747
 H    4.978380    1.866147    2.952831
 H    3.966508    0.258415    1.870669
 H    6.959601    2.570100    0.678269
 H    5.586812    3.508389    1.319865
 H    5.788838    3.327679   -0.430216
 H    5.382551    1.167927   -1.491962
 H    4.022925   -0.230856   -0.621795
 H    7.765988    0.549817   -0.352614
 H    6.564576   -1.102278   -1.153120
 H   -6.628479   -0.697602   -0.760342
 H   -6.964072   -1.722852    0.643658
 H   -6.852759   -2.432947   -0.967944
}
memory 20GB
set_num_threads(6)
psi4_io.set_default_path("/scratch/bdw2292")
set freeze_core True
E, wfn = energy('mp2/6-311++G**',return_wfn=True)
oeprop(wfn,"WIBERG_LOWDIN_INDICES")
clean()
--------------------------------------------------------------------------

    Molecular point group: c1

    Geometry (in Angstrom), charge = 0, multiplicity = 1:

       Center              X                  Y                   Z               Mass
    ------------   -----------------  -----------------  -----------------  -----------------
         C           -1.647521193613     4.945402360772    -3.183608336744    12.000000000000
         C           -2.531440193613     4.755884360772    -2.113087336744    12.000000000000
         C           -2.741694193613     3.462886360772    -1.592553336744    12.000000000000
         C           -2.017077193613     2.417562360772    -2.218091336744    12.000000000000
         N           -1.168924193613     2.583008360772    -3.241781336744    14.003074004430
         C           -0.992700193613     3.826868360772    -3.709698336744    12.000000000000
         C           -3.673769193613     3.170640360772    -0.443883336744    12.000000000000
         C           -4.440435193613     4.126326360772     0.245378663256    12.000000000000
         C           -5.239426193613     3.635092360772     1.284127663256    12.000000000000
         N           -5.307194193613     2.355251360772     1.638750663256    14.003074004430
         C           -4.535677193613     1.515428360772     0.919908663256    12.000000000000
         N           -3.737258193613     1.874045360772    -0.084763336744    14.003074004430
         N           -4.599710193613     0.193377360772     1.279558663256    14.003074004430
         C           -3.987616193613    -0.956683639228     0.714422663256    12.000000000000
         C           -4.790860193613    -1.886812639228    -0.004815336744    12.000000000000
         C           -4.139238193613    -3.009498639228    -0.537110336744    12.000000000000
         C           -2.766270193613    -3.244424639228    -0.401423336744    12.000000000000
         C           -1.992699193613    -2.313830639228     0.303643663256    12.000000000000
         C           -2.613974193613    -1.179845639228     0.856948663256    12.000000000000
         N           -0.581049193613    -2.416086639228     0.526631663256    14.003074004430
         C            0.366156806387    -3.202148639228    -0.089527336744    12.000000000000
         C            1.818995806387    -2.995028639228     0.290327663256    12.000000000000
         C            2.233636806387    -2.610137639228     1.575725663256    12.000000000000
         C            3.589353806387    -2.426440639228     1.856217663256    12.000000000000
         C            4.575722806387    -2.625700639228     0.872041663256    12.000000000000
         C            4.148472806387    -3.046853639228    -0.401689336744    12.000000000000
         C            2.795296806387    -3.235079639228    -0.690612336744    12.000000000000
         C            6.058549806387    -2.410981639228     1.180249663256    12.000000000000
         N            6.601572806387    -1.044283639228     1.095345663256    14.003074004430
         C            6.338966806387    -0.087059639228     2.191680663256    12.000000000000
         C            5.137128806387     0.857597360772     1.934212663256    12.000000000000
         N            5.202405806387     1.589054360772     0.647611663256    14.003074004430
         C            6.032892806387     2.799310360772     0.619970663256    12.000000000000
         C            5.421528806387     0.616039360772    -0.451012336744    12.000000000000
         C            6.606673806387    -0.357348639228    -0.216189336744    12.000000000000
         O            0.077586806387    -4.036944639228    -0.931916336744    15.994914619570
         C           -6.281328193613    -1.690232639228    -0.217451336744    12.000000000000
         H           -1.469531193613     5.932474360772    -3.600341336744     1.007825032230
         H           -3.038374193613     5.627866360772    -1.707089336744     1.007825032230
         H           -2.134634193613     1.395203360772    -1.868924336744     1.007825032230
         H           -0.296697193613     3.926712360772    -4.540908336744     1.007825032230
         H           -4.439821193613     5.184491360772     0.014824663256     1.007825032230
         H           -5.863095193613     4.313408360772     1.865506663256     1.007825032230
         H           -5.216986193613     0.006205360772     2.056729663256     1.007825032230
         H           -4.716362193613    -3.743169639228    -1.098510336744     1.007825032230
         H           -2.302261193613    -4.120006639228    -0.838731336744     1.007825032230
         H           -2.047526193613    -0.434276639228     1.398274663256     1.007825032230
         H           -0.199895193613    -1.643060639228     1.053194663256     1.007825032230
         H            1.491503806387    -2.458715639228     2.355489663256     1.007825032230
         H            3.879429806387    -2.123142639228     2.862487663256     1.007825032230
         H            4.878632806387    -3.226756639228    -1.189993336744     1.007825032230
         H            2.474174806387    -3.559661639228    -1.677335336744     1.007825032230
         H            6.265405806387    -2.785515639228     2.193390663256     1.007825032230
         H            6.649770806387    -3.035216639228     0.494413663256     1.007825032230
         H            6.279047806387    -0.579976639228     3.111951663256     1.007825032230
         H            7.599232806387     0.860002360772     2.276848663256     1.007825032230
         H            5.109799806387     1.850607360772     3.040932663256     1.007825032230
         H            4.097927806387     0.242875360772     1.958770663256     1.007825032230
         H            7.091020806387     2.554560360772     0.766370663256     1.007825032230
         H            5.718231806387     3.492849360772     1.407966663256     1.007825032230
         H            5.920257806387     3.312139360772    -0.342114336744     1.007825032230
         H            5.513970806387     1.152387360772    -1.403860336744     1.007825032230
         H            4.154344806387    -0.246395639228    -0.533693336744     1.007825032230
         H            7.897407806387     0.534277360772    -0.264512336744     1.007825032230
         H            6.695995806387    -1.117817639228    -1.065018336744     1.007825032230
         H           -6.497059193613    -0.713141639228    -0.672240336744     1.007825032230
         H           -6.832652193613    -1.738391639228     0.731759663256     1.007825032230
         H           -6.721339193613    -2.448486639228    -0.879842336744     1.007825032230

  Charge       = 0
  Multiplicity = 1
  Basis Set: 6-311++G**
    Blend: 6-311++G**
  Basis Set: (6-311++G** AUX)
    Blend: AUG-CC-PVTZ-JKFIT

    Orbital Energies [Eh]
    ---------------------

    Doubly Occupied:

       1A    -20.526202     2A    -15.607073     3A    -15.586930
       4A    -15.575572     5A    -15.570233     6A    -15.563458
       7A    -15.559183     8A    -15.558529     9A    -11.369412
      10A    -11.364192    11A    -11.324153    12A    -11.317233
      13A    -11.311133    14A    -11.306665    15A    -11.305139
      16A    -11.304263    17A    -11.296103    18A    -11.287401
      19A    -11.287104    20A    -11.285442    21A    -11.284067
      22A    -11.276699    23A    -11.266112    24A    -11.264746
      25A    -11.264342    26A    -11.263459    27A    -11.256020
      28A    -11.255009    29A    -11.252298    30A    -11.252040
      31A    -11.248425    32A    -11.247234    33A    -11.243505
      34A    -11.241612    35A    -11.239533    36A    -11.234628
      37A    -11.230199    38A     -1.392607    39A     -1.337981
      40A     -1.262941    41A     -1.254897    42A     -1.250564
      43A     -1.239270    44A     -1.204504    45A     -1.200806
      46A     -1.169167    47A     -1.140307    48A     -1.103491
      49A     -1.068076    50A     -1.062451    51A     -1.040488
      52A     -1.036431    53A     -1.031739    54A     -1.006593
      55A     -1.005159    56A     -0.982494    57A     -0.946473
      58A     -0.930660    59A     -0.915143    60A     -0.893340
      61A     -0.871273    62A     -0.860815    63A     -0.853384
      64A     -0.845686    65A     -0.844622    66A     -0.836260
      67A     -0.827101    68A     -0.809640    69A     -0.779247
      70A     -0.748158    71A     -0.742753    72A     -0.728746
      73A     -0.712953    74A     -0.711981    75A     -0.694963
      76A     -0.685105    77A     -0.671918    78A     -0.664436
      79A     -0.659903    80A     -0.656488    81A     -0.650232
      82A     -0.648381    83A     -0.643619    84A     -0.633868
      85A     -0.629527    86A     -0.622546    87A     -0.612975
      88A     -0.611573    89A     -0.604264    90A     -0.602605
      91A     -0.598685    92A     -0.595820    93A     -0.595112
      94A     -0.590192    95A     -0.586137    96A     -0.580806
      97A     -0.578927    98A     -0.572316    99A     -0.570431
     100A     -0.546534   101A     -0.545157   102A     -0.542448
     103A     -0.534855   104A     -0.531256   105A     -0.530823
     106A     -0.520217   107A     -0.515697   108A     -0.511726
     109A     -0.508911   110A     -0.502760   111A     -0.497881
     112A     -0.495296   113A     -0.484737   114A     -0.466467
     115A     -0.461365   116A     -0.440980   117A     -0.433837
     118A     -0.432130   119A     -0.426857   120A     -0.424074
     121A     -0.404250   122A     -0.396387   123A     -0.386003
     124A     -0.381439   125A     -0.355403   126A     -0.353279
     127A     -0.349349   128A     -0.337759   129A     -0.319718
     130A     -0.314414   131A     -0.302819

  @DF-RHF Final Energy: -1572.32574341705799

   => Energetics <=

    Nuclear Repulsion Energy =           3651.8987605995789636
    One-Electron Energy =               -9402.2706041911696957
    Two-Electron Energy =                4178.0461001745325120
    Total Energy =                      -1572.3257434170582201

  Dipole Moment: [D]
     X:    -0.2027      Y:     4.0365      Z:     1.8530     Total:     4.4462

  Basis Set: (6-311++G** AUX)
    Blend: AUG-CC-PVTZ-RI
	 Reference Energy          =   -1572.3257434170579927 [Eh]
	 Singles Energy            =      -0.0000000000000000 [Eh]
	 Same-Spin Energy          =      -1.4675739188417023 [Eh]
	 Opposite-Spin Energy      =      -4.0437428254538510 [Eh]
	 Correlation Energy        =      -5.5113167442955531 [Eh]
	 Total Energy              =   -1577.8370601613535200 [Eh]

	 ================> DF-SCS-MP2 Energies <==================
	-----------------------------------------------------------
	 SCS Same-Spin Scale       =       0.3333333333333333 [-]
	 SCS Opposite-Spin Scale   =       1.2000000000000000 [-]
	 SCS Same-Spin Energy      =      -0.4891913062805674 [Eh]
	 SCS Opposite-Spin Energy  =      -4.8524913905446212 [Eh]
	 SCS Correlation Energy    =      -5.3416826968251883 [Eh]
	 SCS Total Energy          =   -1577.6674261138832662 [Eh]
	-----------------------------------------------------------

*** Psi4 exiting successfully. Buy a developer a beer!
