                               Psi4 1.3.2 release

  ==> Input File <==

--------------------------------------------------------------------------
molecule {
0 1
 C   -0.295818    4.442537   -0.481709
 C    1.040188    4.313934   -0.079205
 C    1.672484    3.056721   -0.136641
 C    0.883575    1.991016   -0.636099
 N   -0.391387    2.094787   -1.032983
 C   -0.964858    3.305368   -0.948046
 C    3.104546    2.817804    0.271452
 C    4.037693    3.818859    0.587460
 C    5.332366    3.374893    0.883137
 N    5.703999    2.096254    0.894131
 C    4.737681    1.201637    0.604348
 N    3.479667    1.526141    0.303124
 N    5.124809   -0.126764    0.635546
 C    4.445681   -1.361471    0.327392
 C    5.206855   -2.550129    0.110569
 C    4.498855   -3.716014   -0.227640
 C    3.105483   -3.778918   -0.348232
 C    2.366049   -2.620941   -0.085439
 C    3.049615   -1.437811    0.236274
 N    0.939026   -2.507604   -0.141775
 C   -0.031159   -3.377529   -0.583944
 C   -1.430105   -2.813191   -0.747903
 C   -1.693591   -1.504659   -1.186096
 C   -3.006524   -1.032883   -1.254627
 C   -4.105356   -1.839924   -0.907687
 C   -3.825069   -3.167630   -0.523467
 C   -2.516446   -3.651409   -0.450372
 C   -5.546021   -1.318310   -0.890714
 N   -5.965367   -0.121663   -0.139558
 C   -5.634054    1.243931   -0.609866
 C   -4.390276    1.918135    0.028667
 N   -4.397832    1.893422    1.510319
 C   -5.195613    2.922135    2.188514
 C   -4.604596    0.492782    1.953429
 C   -5.860666   -0.174133    1.338521
 O    0.195866   -4.553755   -0.821205
 C    6.723035   -2.597645    0.200288
 H   -0.808064    5.398844   -0.433448
 H    1.558658    5.194209    0.293246
 H    1.310420    0.999714   -0.751737
 H   -2.000758    3.357214   -1.277605
 H    3.823944    4.880517    0.582037
 H    6.136640    4.069967    1.122865
 H    6.110795   -0.181609    0.841854
 H    5.052707   -4.634610   -0.417700
 H    2.598335   -4.696165   -0.620345
 H    2.481272   -0.546095    0.442415
 H    0.587731   -1.599273    0.127913
 H   -0.869615   -0.849381   -1.459524
 H   -3.166890   -0.024950   -1.627616
 H   -4.639124   -3.839094   -0.250771
 H   -2.319629   -4.675624   -0.142833
 H   -5.827977   -1.136750   -1.937822
 H   -6.183068   -2.126988   -0.504402
 H   -5.539472    1.260343   -1.965462
 H   -6.826989    2.107976   -0.250356
 H   -4.315296    3.089334   -0.354230
 H   -3.540584    1.468849   -0.269953
 H   -6.262669    2.795135    1.973884
 H   -4.884600    3.920167    1.858587
 H   -5.043886    2.864783    3.272619
 H   -4.626210    0.450262    3.099579
 H   -3.386720   -0.293682    1.494438
 H   -7.034766    0.489887    1.877196
 H   -5.913852   -1.551773    1.781154
 H    7.100913   -2.280842    1.182648
 H    7.180625   -1.944311   -0.547868
 H    7.124224   -3.599929    0.028367
}
memory 20GB
set_num_threads(6)
psi4_io.set_default_path("/scratch/bdw2292")
set freeze_core True
E, wfn = energy('mp2/6-311+G*',return_wfn=True)
oeprop(wfn,"WIBERG_LOWDIN_INDICES")
clean()
--------------------------------------------------------------------------

    Molecular point group: c1

    Geometry (in Angstrom), charge = 0, multiplicity = 1:

       Center              X                  Y                   Z               Mass
    ------------   -----------------  -----------------  -----------------  -----------------
         C           -0.390939736801     4.484990410641    -0.494047283962    12.000000000000
         C            0.945066263199     4.356387410641    -0.091543283962    12.000000000000
         C            1.577362263199     3.099174410641    -0.148979283962    12.000000000000
         C            0.788453263199     2.033469410641    -0.648437283962    12.000000000000
         N           -0.486508736801     2.137240410641    -1.045321283962    14.003074004430
         C           -1.059979736801     3.347821410641    -0.960384283962    12.000000000000
         C            3.009424263199     2.860257410641     0.259113716038    12.000000000000
         C            3.942571263199     3.861312410641     0.575121716038    12.000000000000
         C            5.237244263199     3.417346410641     0.870798716038    12.000000000000
         N            5.608877263199     2.138707410641     0.881792716038    14.003074004430
         C            4.642559263199     1.244090410641     0.592009716038    12.000000000000
         N            3.384545263199     1.568594410641     0.290785716038    14.003074004430
         N            5.029687263199    -0.084310589359     0.623207716038    14.003074004430
         C            4.350559263199    -1.319017589359     0.315053716038    12.000000000000
         C            5.111733263199    -2.507675589359     0.098230716038    12.000000000000
         C            4.403733263199    -3.673560589359    -0.239978283962    12.000000000000
         C            3.010361263199    -3.736464589359    -0.360570283962    12.000000000000
         C            2.270927263199    -2.578487589359    -0.097777283962    12.000000000000
         C            2.954493263199    -1.395357589359     0.223935716038    12.000000000000
         N            0.843904263199    -2.465150589359    -0.154113283962    14.003074004430
         C           -0.126280736801    -3.335075589359    -0.596282283962    12.000000000000
         C           -1.525226736801    -2.770737589359    -0.760241283962    12.000000000000
         C           -1.788712736801    -1.462205589359    -1.198434283962    12.000000000000
         C           -3.101645736801    -0.990429589359    -1.266965283962    12.000000000000
         C           -4.200477736801    -1.797470589359    -0.920025283962    12.000000000000
         C           -3.920190736801    -3.125176589359    -0.535805283962    12.000000000000
         C           -2.611567736801    -3.608955589359    -0.462710283962    12.000000000000
         C           -5.641142736801    -1.275856589359    -0.903052283962    12.000000000000
         N           -6.060488736801    -0.079209589359    -0.151896283962    14.003074004430
         C           -5.729175736801     1.286384410641    -0.622204283962    12.000000000000
         C           -4.485397736801     1.960588410641     0.016328716038    12.000000000000
         N           -4.492953736801     1.935875410641     1.497980716038    14.003074004430
         C           -5.290734736801     2.964588410641     2.176175716038    12.000000000000
         C           -4.699717736801     0.535235410641     1.941090716038    12.000000000000
         C           -5.955787736801    -0.131679589359     1.326182716038    12.000000000000
         O            0.100744263199    -4.511301589359    -0.833543283962    15.994914619570
         C            6.627913263199    -2.555191589359     0.187949716038    12.000000000000
         H           -0.903185736801     5.441297410641    -0.445786283962     1.007825032230
         H            1.463536263199     5.236662410641     0.280907716038     1.007825032230
         H            1.215298263199     1.042167410641    -0.764075283962     1.007825032230
         H           -2.095879736801     3.399667410641    -1.289943283962     1.007825032230
         H            3.728822263199     4.922970410641     0.569698716038     1.007825032230
         H            6.041518263199     4.112420410641     1.110526716038     1.007825032230
         H            6.015673263199    -0.139155589359     0.829515716038     1.007825032230
         H            4.957585263199    -4.592156589359    -0.430038283962     1.007825032230
         H            2.503213263199    -4.653711589359    -0.632683283962     1.007825032230
         H            2.386150263199    -0.503641589359     0.430076716038     1.007825032230
         H            0.492609263199    -1.556819589359     0.115574716038     1.007825032230
         H           -0.964736736801    -0.806927589359    -1.471862283962     1.007825032230
         H           -3.262011736801     0.017503410641    -1.639954283962     1.007825032230
         H           -4.734245736801    -3.796640589359    -0.263109283962     1.007825032230
         H           -2.414750736801    -4.633170589359    -0.155171283962     1.007825032230
         H           -5.923098736801    -1.094296589359    -1.950160283962     1.007825032230
         H           -6.278189736801    -2.084534589359    -0.516740283962     1.007825032230
         H           -5.634593736801     1.302796410641    -1.977800283962     1.007825032230
         H           -6.922110736801     2.150429410641    -0.262694283962     1.007825032230
         H           -4.410417736801     3.131787410641    -0.366568283962     1.007825032230
         H           -3.635705736801     1.511302410641    -0.282291283962     1.007825032230
         H           -6.357790736801     2.837588410641     1.961545716038     1.007825032230
         H           -4.979721736801     3.962620410641     1.846248716038     1.007825032230
         H           -5.139007736801     2.907236410641     3.260280716038     1.007825032230
         H           -4.721331736801     0.492715410641     3.087240716038     1.007825032230
         H           -3.481841736801    -0.251228589359     1.482099716038     1.007825032230
         H           -7.129887736801     0.532340410641     1.864857716038     1.007825032230
         H           -6.008973736801    -1.509319589359     1.768815716038     1.007825032230
         H            7.005791263199    -2.238388589359     1.170309716038     1.007825032230
         H            7.085503263199    -1.901857589359    -0.560206283962     1.007825032230
         H            7.029102263199    -3.557475589359     0.016028716038     1.007825032230

  Charge       = 0
  Multiplicity = 1
  Basis Set: 6-311+G*
    Blend: 6-311+G*
  Basis Set: (6-311+G* AUX)
    Blend: HEAVY-AUG-CC-PVTZ-JKFIT

    Orbital Energies [Eh]
    ---------------------

    Doubly Occupied:

       1A    -20.520932     2A    -15.603850     3A    -15.601629
       4A    -15.585510     5A    -15.578450     6A    -15.572808
       7A    -15.567419     8A    -15.560236     9A    -11.373850
      10A    -11.363857    11A    -11.336366    12A    -11.335208
      13A    -11.333623    14A    -11.313571    15A    -11.310430
      16A    -11.301576    17A    -11.300033    18A    -11.299558
      19A    -11.292596    20A    -11.288701    21A    -11.278856
      22A    -11.278766    23A    -11.273354    24A    -11.264568
      25A    -11.258258    26A    -11.255528    27A    -11.252905
      28A    -11.252647    29A    -11.252188    30A    -11.249130
      31A    -11.246626    32A    -11.245274    33A    -11.244327
      34A    -11.239945    35A    -11.233903    36A    -11.230794
      37A    -11.224846    38A     -1.385641    39A     -1.344717
      40A     -1.277303    41A     -1.250959    42A     -1.250535
      43A     -1.241538    44A     -1.208977    45A     -1.205940
      46A     -1.161536    47A     -1.139622    48A     -1.115200
      49A     -1.074704    50A     -1.059645    51A     -1.047518
      52A     -1.037699    53A     -1.022747    54A     -1.007694
      55A     -1.005036    56A     -0.981344    57A     -0.949787
      58A     -0.932322    59A     -0.925787    60A     -0.900410
      61A     -0.872020    62A     -0.866313    63A     -0.857491
      64A     -0.840887    65A     -0.839689    66A     -0.832091
      67A     -0.825686    68A     -0.807279    69A     -0.778813
      70A     -0.754353    71A     -0.738749    72A     -0.730935
      73A     -0.723944    74A     -0.719516    75A     -0.697783
      76A     -0.682620    77A     -0.670932    78A     -0.666405
      79A     -0.656964    80A     -0.652842    81A     -0.652255
      82A     -0.641018    83A     -0.637668    84A     -0.632363
      85A     -0.627928    86A     -0.622414    87A     -0.619308
      88A     -0.612393    89A     -0.607423    90A     -0.603332
      91A     -0.601309    92A     -0.595827    93A     -0.592640
      94A     -0.592071    95A     -0.585199    96A     -0.583344
      97A     -0.580112    98A     -0.575279    99A     -0.564522
     100A     -0.560127   101A     -0.548774   102A     -0.544427
     103A     -0.543331   104A     -0.530781   105A     -0.525675
     106A     -0.522931   107A     -0.515659   108A     -0.514280
     109A     -0.508690   110A     -0.505133   111A     -0.501468
     112A     -0.493155   113A     -0.484156   114A     -0.480045
     115A     -0.451319   116A     -0.450856   117A     -0.444554
     118A     -0.441587   119A     -0.427200   120A     -0.425224
     121A     -0.413478   122A     -0.411584   123A     -0.399052
     124A     -0.384561   125A     -0.372654   126A     -0.344979
     127A     -0.343745   128A     -0.341928   129A     -0.319658
     130A     -0.313427   131A     -0.289435

  @DF-RHF Final Energy: -1572.26567483572762

   => Energetics <=

    Nuclear Repulsion Energy =           3784.7200685147554395
    One-Electron Energy =               -9667.2827722093388729
    Two-Electron Energy =                4310.2970288588558105
    Total Energy =                      -1572.2656748357276228

  Dipole Moment: [D]
     X:     0.4037      Y:     6.9543      Z:     1.2378     Total:     7.0751

  Basis Set: (6-311+G* AUX)
    Blend: HEAVY-AUG-CC-PVTZ-RI
	 Reference Energy          =   -1572.2656748357276228 [Eh]
	 Singles Energy            =      -0.0000000000000000 [Eh]
	 Same-Spin Energy          =      -1.4499215132159879 [Eh]
	 Opposite-Spin Energy      =      -3.8956266419458174 [Eh]
	 Correlation Energy        =      -5.3455481551618051 [Eh]
	 Total Energy              =   -1577.6112229908894733 [Eh]

	 ================> DF-SCS-MP2 Energies <==================
	-----------------------------------------------------------
	 SCS Same-Spin Scale       =       0.3333333333333333 [-]
	 SCS Opposite-Spin Scale   =       1.2000000000000000 [-]
	 SCS Same-Spin Energy      =      -0.4833071710719959 [Eh]
	 SCS Opposite-Spin Energy  =      -4.6747519703349809 [Eh]
	 SCS Correlation Energy    =      -5.1580591414069765 [Eh]
	 SCS Total Energy          =   -1577.4237339771345887 [Eh]
	-----------------------------------------------------------

*** Psi4 exiting successfully. Buy a developer a beer!
