                               Psi4 1.3.2 release

  ==> Input File <==

--------------------------------------------------------------------------
molecule {
0 1
 C   -0.295972    4.432413   -0.767659
 C    1.049243    4.318176   -0.393098
 C    1.670908    3.054523   -0.383626
 C    0.866042    1.967930   -0.806202
 N   -0.417572    2.057585   -1.178480
 C   -0.984222    3.274154   -1.145880
 C    3.101039    2.827559    0.038159
 C    4.042013    3.837641    0.297379
 C    5.323010    3.400922    0.656422
 N    5.674921    2.122309    0.776131
 C    4.703664    1.220331    0.528952
 N    3.459285    1.537100    0.167454
 N    5.070323   -0.106774    0.676591
 C    4.381658   -1.353262    0.446746
 C    5.127471   -2.567036    0.347753
 C    4.407685   -3.748090    0.097239
 C    3.017349   -3.799830   -0.060069
 C    2.294330   -2.609429    0.065708
 C    2.988498   -1.416075    0.318646
 N    0.877475   -2.469518   -0.070227
 C   -0.099381   -3.346688   -0.482301
 C   -1.465558   -2.746180   -0.758577
 C   -1.637604   -1.468481   -1.318679
 C   -2.916471   -0.935490   -1.487421
 C   -4.067073   -1.655401   -1.115562
 C   -3.882228   -2.955536   -0.605095
 C   -2.606260   -3.503318   -0.446372
 C   -5.453531   -1.014111   -1.208806
 N   -5.934141   -0.148234   -0.114098
 C   -5.951977    1.319612   -0.305284
 C   -4.658755    2.035281    0.161068
 N   -4.292044    1.742142    1.568919
 C   -4.978379    2.523642    2.604242
 C   -4.261089    0.270288    1.766129
 C   -5.541117   -0.460585    1.280074
 O    0.095084   -4.545591   -0.607320
 C    6.639629   -2.628329    0.482821
 H   -0.801337    5.393478   -0.761721
 H    1.580838    5.214856   -0.084556
 H    1.285061    0.968831   -0.873700
 H   -2.030344    3.313321   -1.445138
 H    3.841722    4.898774    0.214310
 H    6.131144    4.101760    0.863980
 H    6.048773   -0.158615    0.916694
 H    4.949606   -4.688780    0.006998
 H    2.500835   -4.728001   -0.271049
 H    2.430911   -0.501169    0.429858
 H    0.542514   -1.532240    0.103515
 H   -0.769023   -0.877335   -1.599060
 H   -3.006361    0.072045   -1.891926
 H   -4.747263   -3.547346   -0.306853
 H   -2.474769   -4.505546   -0.045686
 H   -5.492068   -0.418030   -2.130381
 H   -6.192697   -1.821314   -1.311630
 H   -6.218312    1.625527   -1.633277
 H   -7.065429    1.845638    0.470703
 H   -4.794348    3.314125    0.022335
 H   -3.729716    1.698955   -0.533252
 H   -6.049310    2.292212    2.625156
 H   -4.851869    3.595863    2.414759
 H   -4.549846    2.305125    3.589156
 H   -4.057940    0.021599    2.988817
 H   -3.193391   -0.193494    1.091463
 H   -6.664402   -0.015938    2.158694
 H   -5.452423   -1.584051    1.424100
 H    6.992434   -2.273967    1.461842
 H    7.127901   -2.013460   -0.278367
 H    7.032258   -3.641551    0.364675
}
memory 20GB
set_num_threads(6)
psi4_io.set_default_path("/scratch/bdw2292")
set freeze_core True
E, wfn = energy('mp2/6-311++G**',return_wfn=True)
oeprop(wfn,"WIBERG_LOWDIN_INDICES")
clean()
--------------------------------------------------------------------------

    Molecular point group: c1

    Geometry (in Angstrom), charge = 0, multiplicity = 1:

       Center              X                  Y                   Z               Mass
    ------------   -----------------  -----------------  -----------------  -----------------
         C           -0.380106909946     4.470702294632    -0.762759003990    12.000000000000
         C            0.965108090054     4.356465294632    -0.388198003990    12.000000000000
         C            1.586773090054     3.092812294632    -0.378726003990    12.000000000000
         C            0.781907090054     2.006219294632    -0.801302003990    12.000000000000
         N           -0.501706909946     2.095874294632    -1.173580003990    14.003074004430
         C           -1.068356909946     3.312443294632    -1.140980003990    12.000000000000
         C            3.016904090054     2.865848294632     0.043058996010    12.000000000000
         C            3.957878090054     3.875930294632     0.302278996010    12.000000000000
         C            5.238875090054     3.439211294632     0.661321996010    12.000000000000
         N            5.590786090054     2.160598294632     0.781030996010    14.003074004430
         C            4.619529090054     1.258620294632     0.533851996010    12.000000000000
         N            3.375150090054     1.575389294632     0.172353996010    14.003074004430
         N            4.986188090054    -0.068484705368     0.681490996010    14.003074004430
         C            4.297523090054    -1.314972705368     0.451645996010    12.000000000000
         C            5.043336090054    -2.528746705368     0.352652996010    12.000000000000
         C            4.323550090054    -3.709800705368     0.102138996010    12.000000000000
         C            2.933214090054    -3.761540705368    -0.055169003990    12.000000000000
         C            2.210195090054    -2.571139705368     0.070607996010    12.000000000000
         C            2.904363090054    -1.377785705368     0.323545996010    12.000000000000
         N            0.793340090054    -2.431228705368    -0.065327003990    14.003074004430
         C           -0.183515909946    -3.308398705368    -0.477401003990    12.000000000000
         C           -1.549692909946    -2.707890705368    -0.753677003990    12.000000000000
         C           -1.721738909946    -1.430191705368    -1.313779003990    12.000000000000
         C           -3.000605909946    -0.897200705368    -1.482521003990    12.000000000000
         C           -4.151207909946    -1.617111705368    -1.110662003990    12.000000000000
         C           -3.966362909946    -2.917246705368    -0.600195003990    12.000000000000
         C           -2.690394909946    -3.465028705368    -0.441472003990    12.000000000000
         C           -5.537665909946    -0.975821705368    -1.203906003990    12.000000000000
         N           -6.018275909946    -0.109944705368    -0.109198003990    14.003074004430
         C           -6.036111909946     1.357901294632    -0.300384003990    12.000000000000
         C           -4.742889909946     2.073570294632     0.165967996010    12.000000000000
         N           -4.376178909946     1.780431294632     1.573818996010    14.003074004430
         C           -5.062513909946     2.561931294632     2.609141996010    12.000000000000
         C           -4.345223909946     0.308577294632     1.771028996010    12.000000000000
         C           -5.625251909946    -0.422295705368     1.284973996010    12.000000000000
         O            0.010949090054    -4.507301705368    -0.602420003990    15.994914619570
         C            6.555494090054    -2.590039705368     0.487720996010    12.000000000000
         H           -0.885471909946     5.431767294632    -0.756821003990     1.007825032230
         H            1.496703090054     5.253145294632    -0.079656003990     1.007825032230
         H            1.200926090054     1.007120294632    -0.868800003990     1.007825032230
         H           -2.114478909946     3.351610294632    -1.440238003990     1.007825032230
         H            3.757587090054     4.937063294632     0.219209996010     1.007825032230
         H            6.047009090054     4.140049294632     0.868879996010     1.007825032230
         H            5.964638090054    -0.120325705368     0.921593996010     1.007825032230
         H            4.865471090054    -4.650490705368     0.011897996010     1.007825032230
         H            2.416700090054    -4.689711705368    -0.266149003990     1.007825032230
         H            2.346776090054    -0.462879705368     0.434757996010     1.007825032230
         H            0.458379090054    -1.493950705368     0.108414996010     1.007825032230
         H           -0.853157909946    -0.839045705368    -1.594160003990     1.007825032230
         H           -3.090495909946     0.110334294632    -1.887026003990     1.007825032230
         H           -4.831397909946    -3.509056705368    -0.301953003990     1.007825032230
         H           -2.558903909946    -4.467256705368    -0.040786003990     1.007825032230
         H           -5.576202909946    -0.379740705368    -2.125481003990     1.007825032230
         H           -6.276831909946    -1.783024705368    -1.306730003990     1.007825032230
         H           -6.302446909946     1.663816294632    -1.628377003990     1.007825032230
         H           -7.149563909946     1.883927294632     0.475602996010     1.007825032230
         H           -4.878482909946     3.352414294632     0.027234996010     1.007825032230
         H           -3.813850909946     1.737244294632    -0.528352003990     1.007825032230
         H           -6.133444909946     2.330501294632     2.630055996010     1.007825032230
         H           -4.936003909946     3.634152294632     2.419658996010     1.007825032230
         H           -4.633980909946     2.343414294632     3.594055996010     1.007825032230
         H           -4.142074909946     0.059888294632     2.993716996010     1.007825032230
         H           -3.277525909946    -0.155204705368     1.096362996010     1.007825032230
         H           -6.748536909946     0.022351294632     2.163593996010     1.007825032230
         H           -5.536557909946    -1.545761705368     1.428999996010     1.007825032230
         H            6.908299090054    -2.235677705368     1.466741996010     1.007825032230
         H            7.043766090054    -1.975170705368    -0.273467003990     1.007825032230
         H            6.948123090054    -3.603261705368     0.369574996010     1.007825032230

  Charge       = 0
  Multiplicity = 1
  Basis Set: 6-311++G**
    Blend: 6-311++G**
  Basis Set: (6-311++G** AUX)
    Blend: AUG-CC-PVTZ-JKFIT

    Orbital Energies [Eh]
    ---------------------

    Doubly Occupied:

       1A    -20.522837     2A    -15.603829     3A    -15.601838
       4A    -15.585232     5A    -15.573037     6A    -15.567988
       7A    -15.567821     8A    -15.555295     9A    -11.374127
      10A    -11.365145    11A    -11.333754    12A    -11.327022
      13A    -11.313290    14A    -11.305640    15A    -11.301750
      16A    -11.299780    17A    -11.299298    18A    -11.299223
      19A    -11.297118    20A    -11.292764    21A    -11.287763
      22A    -11.278767    23A    -11.275910    24A    -11.263680
      25A    -11.258632    26A    -11.258181    27A    -11.253410
      28A    -11.251864    29A    -11.251281    30A    -11.247824
      31A    -11.247375    32A    -11.247268    33A    -11.245608
      34A    -11.240140    35A    -11.233901    36A    -11.230533
      37A    -11.225279    38A     -1.386927    39A     -1.344641
      40A     -1.276541    41A     -1.251988    42A     -1.244899
      43A     -1.241704    44A     -1.209005    45A     -1.199164
      46A     -1.162490    47A     -1.139757    48A     -1.114733
      49A     -1.074400    50A     -1.060026    51A     -1.047125
      52A     -1.037747    53A     -1.024191    54A     -1.007914
      55A     -0.993238    56A     -0.977580    57A     -0.947825
      58A     -0.928772    59A     -0.925429    60A     -0.900256
      61A     -0.871615    62A     -0.866238    63A     -0.857109
      64A     -0.841740    65A     -0.836738    66A     -0.826680
      67A     -0.822260    68A     -0.805563    69A     -0.778376
      70A     -0.753774    71A     -0.738663    72A     -0.730776
      73A     -0.721327    74A     -0.707444    75A     -0.696818
      76A     -0.682039    77A     -0.670740    78A     -0.666315
      79A     -0.656469    80A     -0.654983    81A     -0.651753
      82A     -0.640417    83A     -0.636471    84A     -0.630771
      85A     -0.622113    86A     -0.617954    87A     -0.611728
      88A     -0.610514    89A     -0.606252    90A     -0.603261
      91A     -0.601470    92A     -0.596288    93A     -0.591652
      94A     -0.589115    95A     -0.585385    96A     -0.580548
      97A     -0.580058    98A     -0.577134    99A     -0.566438
     100A     -0.559800   101A     -0.547914   102A     -0.543103
     103A     -0.536908   104A     -0.524129   105A     -0.522846
     106A     -0.521110   107A     -0.514361   108A     -0.511236
     109A     -0.509032   110A     -0.506475   111A     -0.501428
     112A     -0.493685   113A     -0.484200   114A     -0.480666
     115A     -0.455278   116A     -0.451017   117A     -0.441617
     118A     -0.437766   119A     -0.428198   120A     -0.425925
     121A     -0.416776   122A     -0.413574   123A     -0.398878
     124A     -0.383901   125A     -0.372901   126A     -0.346310
     127A     -0.344963   128A     -0.344090   129A     -0.315299
     130A     -0.313134   131A     -0.290243

  @DF-RHF Final Energy: -1572.37046927654637

   => Energetics <=

    Nuclear Repulsion Energy =           3799.5410548045774703
    One-Electron Energy =               -9697.4184523790045205
    Two-Electron Energy =                4325.5069282978811316
    Total Energy =                      -1572.3704692765459185

  Dipole Moment: [D]
     X:     0.7652      Y:     6.8049      Z:     0.5803     Total:     6.8723

  Basis Set: (6-311++G** AUX)
    Blend: AUG-CC-PVTZ-RI
	 Reference Energy          =   -1572.3704692765463733 [Eh]
	 Singles Energy            =      -0.0000000000000000 [Eh]
	 Same-Spin Energy          =      -1.4717007047606092 [Eh]
	 Opposite-Spin Energy      =      -4.0480552756445833 [Eh]
	 Correlation Energy        =      -5.5197559804051926 [Eh]
	 Total Energy              =   -1577.8902252569514530 [Eh]

	 ================> DF-SCS-MP2 Energies <==================
	-----------------------------------------------------------
	 SCS Same-Spin Scale       =       0.3333333333333333 [-]
	 SCS Opposite-Spin Scale   =       1.2000000000000000 [-]
	 SCS Same-Spin Energy      =      -0.4905669015868697 [Eh]
	 SCS Opposite-Spin Energy  =      -4.8576663307735002 [Eh]
	 SCS Correlation Energy    =      -5.3482332323603696 [Eh]
	 SCS Total Energy          =   -1577.7187025089067447 [Eh]
	-----------------------------------------------------------

*** Psi4 exiting successfully. Buy a developer a beer!
