 Gaussian 09, Revision A.02,
 Gaussian 09:  EM64L-G09RevA.02 11-Jun-2009

 --------------------------------------------------
 #P opt=(,maxcycle=400) wB97XD/6-31G* MaxDisk=100GB
 --------------------------------------------------

 --------------------------------------------------------------
 MOLECULE0 Rotatable Bond Optimization on node37.bme.utexas.edu
 --------------------------------------------------------------
 Symbolic Z-matrix:
 Charge =  0 Multiplicity = 1

 SCF Done:  E(RwB97XD) =  -1581.52414837     A.U. after   16 cycles
 SCF Done:  E(RwB97XD) =  -1581.58369031     A.U. after   13 cycles
 SCF Done:  E(RwB97XD) =  -1581.67959918     A.U. after   14 cycles
 SCF Done:  E(RwB97XD) =  -1581.71569626     A.U. after   14 cycles
 SCF Done:  E(RwB97XD) =  -1581.73289706     A.U. after   17 cycles
 SCF Done:  E(RwB97XD) =  -1581.72660532     A.U. after   14 cycles
 SCF Done:  E(RwB97XD) =  -1581.74742533     A.U. after   14 cycles
 SCF Done:  E(RwB97XD) =  -1581.75674923     A.U. after   14 cycles
 SCF Done:  E(RwB97XD) =  -1581.75884992     A.U. after   16 cycles
 SCF Done:  E(RwB97XD) =  -1581.75968527     A.U. after   14 cycles
 SCF Done:  E(RwB97XD) =  -1581.76051629     A.U. after    8 cycles
 SCF Done:  E(RwB97XD) =  -1581.76051641     A.U. after   10 cycles
 SCF Done:  E(RwB97XD) =  -1581.76051765     A.U. after    8 cycles
 SCF Done:  E(RwB97XD) =  -1581.76051908     A.U. after   10 cycles
 SCF Done:  E(RwB97XD) =  -1581.76052039     A.U. after   10 cycles
 SCF Done:  E(RwB97XD) =  -1581.76052158     A.U. after   10 cycles
 SCF Done:  E(RwB97XD) =  -1581.76052172     A.U. after   10 cycles
 SCF Done:  E(RwB97XD) =  -1581.76052172     A.U. after    7 cycles
 SCF Done:  E(RwB97XD) =  -1581.76052176     A.U. after    7 cycles
 SCF Done:  E(RwB97XD) =  -1581.76052192     A.U. after    7 cycles
 Optimization completed.
    -- Stationary point found.

                         Standard orientation:
 ---------------------------------------------------------------------
 Center     Atomic      Atomic             Coordinates (Angstroms)
 Number     Number       Type             X           Y           Z
 ---------------------------------------------------------------------
      1          6           0        0.397716    2.581690   -2.028334
      2          6           0        1.586959    2.147148   -1.462114
      3          6           0        2.321302    3.031472   -0.666669
      4          6           0        1.797470    4.311756   -0.472520
      5          7           0        0.654219    4.741377   -1.006516
      6          6           0       -0.022666    3.885200   -1.773337
      7          6           0        3.590965    2.592356   -0.037451
      8          6           0        4.605917    3.467467    0.341197
      9          6           0        5.731855    2.886332    0.920408
     10          7           0        5.870396    1.581496    1.113808
     11          6           0        4.833260    0.824636    0.703647
     12          7           0        3.710855    1.273861    0.142292
     13          7           0        4.998587   -0.519460    0.898407
     14          6           0        4.146075   -1.591501    0.578926
     15          6           0        4.709982   -2.877668    0.466350
     16          6           0        3.858196   -3.931283    0.148033
     17          6           0        2.492935   -3.768614   -0.070715
     18          6           0        1.957145   -2.489104    0.053064
     19          6           0        2.779064   -1.414381    0.392892
     20          7           0        0.602893   -2.169474   -0.159892
     21          6           0       -0.414244   -2.960120   -0.625302
     22          6           0       -1.693320   -2.212640   -0.881320
     23          6           0       -1.725533   -0.868875   -1.265416
     24          6           0       -2.939594   -0.232760   -1.490204
     25          6           0       -4.147858   -0.910692   -1.320796
     26          6           0       -4.104257   -2.263830   -0.975673
     27          6           0       -2.894451   -2.911692   -0.763443
     28          6           0       -5.478547   -0.189560   -1.480526
     29          7           0       -6.023759    0.497387   -0.322335
     30          6           0       -5.373439    1.732188    0.102044
     31          6           0       -4.307473    1.534319    1.193288
     32          7           0       -4.795166    0.769606    2.337545
     33          6           0       -5.676666    1.522210    3.212546
     34          6           0       -5.354961   -0.500237    1.881580
     35          6           0       -6.440826   -0.327607    0.806164
     36          8           0       -0.321136   -4.162163   -0.812439
     37          6           0        6.184961   -3.106973    0.675283
     38          1           0       -0.191599    1.930539   -2.666679
     39          1           0        1.965181    1.142979   -1.628284
     40          1           0        2.314183    5.024765    0.166961
     41          1           0       -0.947247    4.261830   -2.205508
     42          1           0        4.546424    4.536192    0.178784
     43          1           0        6.567810    3.505261    1.240141
     44          1           0        5.906020   -0.745576    1.277360
     45          1           0        4.282207   -4.927769    0.053972
     46          1           0        1.859180   -4.603838   -0.332997
     47          1           0        2.360666   -0.421739    0.483507
     48          1           0        0.356098   -1.219388    0.072844
     49          1           0       -0.802546   -0.316759   -1.425684
     50          1           0       -2.948462    0.811120   -1.796476
     51          1           0       -5.035233   -2.815398   -0.866577
     52          1           0       -2.859437   -3.965175   -0.505375
     53          1           0       -5.386336    0.552993   -2.282792
     54          1           0       -6.231023   -0.916472   -1.811419
     55          1           0       -4.934243    2.220637   -0.775485
     56          1           0       -6.151916    2.410312    0.481893
     57          1           0       -3.946633    2.508065    1.546397
     58          1           0       -3.447993    0.995455    0.778152
     59          1           0       -6.622385    1.864380    2.756587
     60          1           0       -5.146034    2.408274    3.577628
     61          1           0       -5.931875    0.903995    4.080185
     62          1           0       -5.765026   -1.035615    2.746285
     63          1           0       -4.530595   -1.102101    1.480975
     64          1           0       -7.325751    0.142147    1.260296
     65          1           0       -6.762753   -1.305239    0.429559
     66          1           0        6.495752   -2.891051    1.706850
     67          1           0        6.793892   -2.484050    0.008262
     68          1           0        6.442778   -4.150434    0.477387
 ---------------------------------------------------------------------

 The electronic state is 1-A.
 Alpha  occ. eigenvalues --  -19.24097 -14.49249 -14.49176 -14.46125 -14.45956
 Alpha  occ. eigenvalues --  -14.45731 -14.44039 -14.43362 -10.41693 -10.40894
 Alpha  occ. eigenvalues --  -10.37410 -10.36163 -10.35034 -10.34913 -10.34871
 Alpha  occ. eigenvalues --  -10.34512 -10.33306 -10.33204 -10.33009 -10.32470
 Alpha  occ. eigenvalues --  -10.32089 -10.31955 -10.31681 -10.31676 -10.31619
 Alpha  occ. eigenvalues --  -10.31571 -10.31369 -10.31196 -10.31062 -10.30962
 Alpha  occ. eigenvalues --  -10.30888 -10.30799 -10.30666 -10.30191 -10.29860
 Alpha  occ. eigenvalues --  -10.29349 -10.28745  -1.14238  -1.12228  -1.05926
 Alpha  occ. eigenvalues --   -1.04724  -1.04201  -1.04105  -1.00622  -0.99924
 Alpha  occ. eigenvalues --   -0.97029  -0.94973  -0.92472  -0.89986  -0.88720
 Alpha  occ. eigenvalues --   -0.87146  -0.86686  -0.85957  -0.85382  -0.83938
 Alpha  occ. eigenvalues --   -0.82345  -0.79927  -0.78235  -0.78007  -0.76317
 Alpha  occ. eigenvalues --   -0.73621  -0.73608  -0.73420  -0.72442  -0.71547
 Alpha  occ. eigenvalues --   -0.71108  -0.70014  -0.68548  -0.66893  -0.65218
 Alpha  occ. eigenvalues --   -0.64117  -0.63634  -0.62654  -0.61680  -0.60408
 Alpha  occ. eigenvalues --   -0.58646  -0.58510  -0.57438  -0.57201  -0.56092
 Alpha  occ. eigenvalues --   -0.56022  -0.55742  -0.55260  -0.55132  -0.54589
 Alpha  occ. eigenvalues --   -0.54323  -0.53818  -0.53601  -0.53015  -0.52460
 Alpha  occ. eigenvalues --   -0.52244  -0.51636  -0.51524  -0.51354  -0.50913
 Alpha  occ. eigenvalues --   -0.50696  -0.50217  -0.50080  -0.49760  -0.48914
 Alpha  occ. eigenvalues --   -0.47545  -0.47105  -0.47079  -0.46676  -0.46244
 Alpha  occ. eigenvalues --   -0.45925  -0.45513  -0.45189  -0.44739  -0.44235
 Alpha  occ. eigenvalues --   -0.43634  -0.43189  -0.42947  -0.41945  -0.41601
 Alpha  occ. eigenvalues --   -0.41299  -0.41210  -0.40034  -0.38265  -0.37318
 Alpha  occ. eigenvalues --   -0.35466  -0.35004  -0.34249  -0.34060  -0.33923
 Alpha  occ. eigenvalues --   -0.33370  -0.32741  -0.31184  -0.29482  -0.27424
 Alpha  occ. eigenvalues --   -0.25330
 Alpha virt. eigenvalues --   -0.00072   0.02474   0.03482   0.04457   0.05435
 Alpha virt. eigenvalues --    0.07267   0.07871   0.10171   0.13694   0.14226
 Alpha virt. eigenvalues --    0.15360   0.16413   0.17157   0.17933   0.18455

 Mulliken atomic charges:
              1
     1  C   -0.198798
     2  C   -0.149977
     3  C    0.037084
     4  C   -0.008613
     5  N   -0.421262
     6  C    0.024311
     7  C    0.287549
     8  C   -0.250644
     9  C    0.047537
    10  N   -0.493393
    11  C    0.708164
    12  N   -0.565469
    13  N   -0.799578
    14  C    0.294266
    15  C    0.119692
    16  C   -0.239879
    17  C   -0.191130
    18  C    0.353788
    19  C   -0.264891
    20  N   -0.766829
    21  C    0.598475
    22  C    0.018025
    23  C   -0.201978
    24  C   -0.219997
    25  C    0.159483
    26  C   -0.222267
    27  C   -0.176225
    28  C   -0.263614
    29  N   -0.380554
    30  C   -0.185361
    31  C   -0.181888
    32  N   -0.384871
    33  C   -0.350990
    34  C   -0.182084
    35  C   -0.187121
    36  O   -0.513250
    37  C   -0.604622
    38  H    0.182815
    39  H    0.208718
    40  H    0.179150
    41  H    0.180406
    42  H    0.186532
    43  H    0.190007
    44  H    0.368717
    45  H    0.162157
    46  H    0.216170
    47  H    0.192241
    48  H    0.359894
    49  H    0.160697
    50  H    0.160497
    51  H    0.168478
    52  H    0.202054
    53  H    0.169938
    54  H    0.171805
    55  H    0.149827
    56  H    0.162371
    57  H    0.155852
    58  H    0.163510
    59  H    0.135780
    60  H    0.168421
    61  H    0.168279
    62  H    0.155042
    63  H    0.169056
    64  H    0.161874
    65  H    0.153842
    66  H    0.177975
    67  H    0.184949
    68  H    0.189855
 Sum of Mulliken atomic charges =   0.00000

 Dipole moment (field-independent basis, Debye):
    X=              0.4480    Y=              2.4008    Z=             -0.0189  Tot=              2.4423
 Quadrupole moment (field-independent basis, Debye-Ang):
   XX=           -188.4301   YY=           -224.2391   ZZ=           -217.2950
   XY=              3.6231   XZ=              2.3627   YZ=             -3.3976

 Normal termination of Gaussian 09 at Wed Mar 25 14:39:01 2020.
