                               Psi4 1.3.2 release

  ==> Input File <==

--------------------------------------------------------------------------
molecule {
0 1
 C   -1.457207    5.054181   -0.367849
 C   -2.765079    4.556836   -0.290524
 C   -2.981494    3.177283   -0.105980
 C   -1.816574    2.381375    0.022436
 N   -0.559157    2.837480   -0.046267
 C   -0.392337    4.154448   -0.244269
 C   -4.347750    2.542550   -0.031699
 C   -5.566480    3.238831    0.020428
 C   -6.717665    2.447493    0.116869
 N   -6.713942    1.116351    0.148067
 C   -5.501873    0.530193    0.074775
 N   -4.349827    1.197040   -0.012178
 N   -5.507651   -0.854116    0.091697
 C   -4.461575   -1.846428    0.131846
 C   -4.770167   -3.181943    0.532626
 C   -3.709745   -4.102809    0.577608
 C   -2.384768   -3.786879    0.255087
 C   -2.097513   -2.482711   -0.161124
 C   -3.139420   -1.543636   -0.218524
 N   -0.805664   -1.987415   -0.530905
 C    0.448847   -2.545115   -0.440218
 C    1.638666   -1.655716   -0.755301
 C    1.644928   -0.259830   -0.587122
 C    2.771861    0.490335   -0.930524
 C    3.947405   -0.121739   -1.405367
 C    3.929234   -1.520226   -1.566949
 C    2.805781   -2.278486   -1.229340
 C    5.175694    0.710792   -1.777627
 N    6.258988    0.878197   -0.793771
 C    7.112127   -0.283011   -0.452109
 C    6.648260   -1.080752    0.794625
 N    6.445418   -0.244900    2.002651
 C    7.644733    0.088346    2.780081
 C    5.546857    0.883028    1.656481
 C    6.000076    1.694422    0.414928
 O    0.621427   -3.716406   -0.139009
 C   -6.166964   -3.632532    0.925983
 H   -1.265941    6.112094   -0.521171
 H   -3.593184    5.253180   -0.397641
 H   -1.899580    1.316503    0.215759
 H    0.641588    4.492050   -0.296824
 H   -5.657890    4.318041    0.014060
 H   -7.712828    2.887304    0.176747
 H   -6.455432   -1.181875    0.201109
 H   -3.910910   -5.127272    0.888095
 H   -1.593134   -4.522864    0.318669
 H   -2.924709   -0.543392   -0.555844
 H   -0.816276   -1.041365   -0.884154
 H    0.768387    0.245909   -0.188241
 H    2.733339    1.572070   -0.802454
 H    4.811391   -2.031314   -1.951649
 H    2.814295   -3.360108   -1.338091
 H    5.626165    0.275198   -2.680781
 H    4.843995    1.724266   -2.044160
 H    7.234865   -0.988400   -1.380461
 H    8.457120    0.247270   -0.158187
 H    7.538750   -2.033986    1.076531
 H    5.514023   -1.678359    0.547284
 H    8.321995    0.727065    2.202092
 H    8.177546   -0.826363    3.064450
 H    7.364503    0.612873    3.700754
 H    5.427897    1.628409    2.647339
 H    4.234530    0.306968    1.391196
 H    7.258207    2.365541    0.759392
 H    5.206048    2.566210    0.169161
 H   -6.890829   -3.534940    0.104392
 H   -6.548901   -3.043026    1.764090
 H   -6.199538   -4.678694    1.241074
}
memory 20GB
set_num_threads(6)
psi4_io.set_default_path("/scratch/bdw2292")
set freeze_core True
E, wfn = energy('mp2/6-311+G*',return_wfn=True)
oeprop(wfn,"WIBERG_LOWDIN_INDICES")
clean()
--------------------------------------------------------------------------

    Molecular point group: c1

    Geometry (in Angstrom), charge = 0, multiplicity = 1:

       Center              X                  Y                   Z               Mass
    ------------   -----------------  -----------------  -----------------  -----------------
         C           -1.341572961769     5.047334552911    -0.347615829680    12.000000000000
         C           -2.649444961769     4.549989552911    -0.270290829680    12.000000000000
         C           -2.865859961769     3.170436552911    -0.085746829680    12.000000000000
         C           -1.700939961769     2.374528552911     0.042669170320    12.000000000000
         N           -0.443522961769     2.830633552911    -0.026033829680    14.003074004430
         C           -0.276702961769     4.147601552911    -0.224035829680    12.000000000000
         C           -4.232115961769     2.535703552911    -0.011465829680    12.000000000000
         C           -5.450845961769     3.231984552911     0.040661170320    12.000000000000
         C           -6.602030961769     2.440646552911     0.137102170320    12.000000000000
         N           -6.598307961769     1.109504552911     0.168300170320    14.003074004430
         C           -5.386238961769     0.523346552911     0.095008170320    12.000000000000
         N           -4.234192961769     1.190193552911     0.008055170320    14.003074004430
         N           -5.392016961769    -0.860962447089     0.111930170320    14.003074004430
         C           -4.345940961769    -1.853274447089     0.152079170320    12.000000000000
         C           -4.654532961769    -3.188789447089     0.552859170320    12.000000000000
         C           -3.594110961769    -4.109655447089     0.597841170320    12.000000000000
         C           -2.269133961769    -3.793725447089     0.275320170320    12.000000000000
         C           -1.981878961769    -2.489557447089    -0.140890829680    12.000000000000
         C           -3.023785961769    -1.550482447089    -0.198290829680    12.000000000000
         N           -0.690029961769    -1.994261447089    -0.510671829680    14.003074004430
         C            0.564481038231    -2.551961447089    -0.419984829680    12.000000000000
         C            1.754300038231    -1.662562447089    -0.735067829680    12.000000000000
         C            1.760562038231    -0.266676447089    -0.566888829680    12.000000000000
         C            2.887495038231     0.483488552911    -0.910290829680    12.000000000000
         C            4.063039038231    -0.128585447089    -1.385133829680    12.000000000000
         C            4.044868038231    -1.527072447089    -1.546715829680    12.000000000000
         C            2.921415038231    -2.285332447089    -1.209106829680    12.000000000000
         C            5.291328038231     0.703945552911    -1.757393829680    12.000000000000
         N            6.374622038231     0.871350552911    -0.773537829680    14.003074004430
         C            7.227761038231    -0.289857447089    -0.431875829680    12.000000000000
         C            6.763894038231    -1.087598447089     0.814858170320    12.000000000000
         N            6.561052038231    -0.251746447089     2.022884170320    14.003074004430
         C            7.760367038231     0.081499552911     2.800314170320    12.000000000000
         C            5.662491038231     0.876181552911     1.676714170320    12.000000000000
         C            6.115710038231     1.687575552911     0.435161170320    12.000000000000
         O            0.737061038231    -3.723252447089    -0.118775829680    15.994914619570
         C           -6.051329961769    -3.639378447089     0.946216170320    12.000000000000
         H           -1.150306961769     6.105247552911    -0.500937829680     1.007825032230
         H           -3.477549961769     5.246333552911    -0.377407829680     1.007825032230
         H           -1.783945961769     1.309656552911     0.235992170320     1.007825032230
         H            0.757222038231     4.485203552911    -0.276590829680     1.007825032230
         H           -5.542255961769     4.311194552911     0.034293170320     1.007825032230
         H           -7.597193961769     2.880457552911     0.196980170320     1.007825032230
         H           -6.339797961769    -1.188721447089     0.221342170320     1.007825032230
         H           -3.795275961769    -5.134118447089     0.908328170320     1.007825032230
         H           -1.477499961769    -4.529710447089     0.338902170320     1.007825032230
         H           -2.809074961769    -0.550238447089    -0.535610829680     1.007825032230
         H           -0.700641961769    -1.048211447089    -0.863920829680     1.007825032230
         H            0.884021038231     0.239062552911    -0.168007829680     1.007825032230
         H            2.848973038231     1.565223552911    -0.782220829680     1.007825032230
         H            4.927025038231    -2.038160447089    -1.931415829680     1.007825032230
         H            2.929929038231    -3.366954447089    -1.317857829680     1.007825032230
         H            5.741799038231     0.268351552911    -2.660547829680     1.007825032230
         H            4.959629038231     1.717419552911    -2.023926829680     1.007825032230
         H            7.350499038231    -0.995246447089    -1.360227829680     1.007825032230
         H            8.572754038231     0.240423552911    -0.137953829680     1.007825032230
         H            7.654384038231    -2.040832447089     1.096764170320     1.007825032230
         H            5.629657038231    -1.685205447089     0.567517170320     1.007825032230
         H            8.437629038231     0.720218552911     2.222325170320     1.007825032230
         H            8.293180038231    -0.833209447089     3.084683170320     1.007825032230
         H            7.480137038231     0.606026552911     3.720987170320     1.007825032230
         H            5.543531038231     1.621562552911     2.667572170320     1.007825032230
         H            4.350164038231     0.300121552911     1.411429170320     1.007825032230
         H            7.373841038231     2.358694552911     0.779625170320     1.007825032230
         H            5.321682038231     2.559363552911     0.189394170320     1.007825032230
         H           -6.775194961769    -3.541786447089     0.124625170320     1.007825032230
         H           -6.433266961769    -3.049872447089     1.784323170320     1.007825032230
         H           -6.083903961769    -4.685540447089     1.261307170320     1.007825032230

  Charge       = 0
  Multiplicity = 1
  Basis Set: 6-311+G*
    Blend: 6-311+G*
  Basis Set: (6-311+G* AUX)
    Blend: HEAVY-AUG-CC-PVTZ-JKFIT

    Orbital Energies [Eh]
    ---------------------

    Doubly Occupied:

       1A    -20.520012     2A    -15.604438     3A    -15.602218
       4A    -15.587695     5A    -15.573816     6A    -15.568704
       7A    -15.567694     8A    -15.552985     9A    -11.374919
      10A    -11.364430    11A    -11.334959    12A    -11.314568
      13A    -11.312112    14A    -11.308045    15A    -11.306597
      16A    -11.302570    17A    -11.301788    18A    -11.301407
      19A    -11.300882    20A    -11.293038    21A    -11.290783
      22A    -11.280985    23A    -11.277410    24A    -11.266995
      25A    -11.256871    26A    -11.256529    27A    -11.253999
      28A    -11.253439    29A    -11.249081    30A    -11.246988
      31A    -11.245542    32A    -11.244848    33A    -11.244268
      34A    -11.240038    35A    -11.234088    36A    -11.231531
      37A    -11.224983    38A     -1.385766    39A     -1.345558
      40A     -1.279479    41A     -1.251305    42A     -1.243532
      43A     -1.242118    44A     -1.209984    45A     -1.197765
      46A     -1.161243    47A     -1.140075    48A     -1.116988
      49A     -1.076109    50A     -1.059226    51A     -1.049093
      52A     -1.037969    53A     -1.023146    54A     -1.008173
      55A     -0.990408    56A     -0.975574    57A     -0.946719
      58A     -0.927362    59A     -0.926658    60A     -0.901539
      61A     -0.873664    62A     -0.865358    63A     -0.858803
      64A     -0.841489    65A     -0.834713    66A     -0.826033
      67A     -0.823445    68A     -0.804811    69A     -0.778638
      70A     -0.755561    71A     -0.740423    72A     -0.731280
      73A     -0.723256    74A     -0.700604    75A     -0.695979
      76A     -0.683752    77A     -0.672811    78A     -0.667213
      79A     -0.658872    80A     -0.655918    81A     -0.652816
      82A     -0.640924    83A     -0.637183    84A     -0.630350
      85A     -0.622972    86A     -0.617489    87A     -0.613030
      88A     -0.607813    89A     -0.604412    90A     -0.603566
      91A     -0.599636    92A     -0.596552    93A     -0.592777
      94A     -0.589329    95A     -0.582919    96A     -0.581418
      97A     -0.579299    98A     -0.574520    99A     -0.564186
     100A     -0.562232   101A     -0.549073   102A     -0.545912
     103A     -0.530057   104A     -0.525273   105A     -0.523709
     106A     -0.521583   107A     -0.514140   108A     -0.509294
     109A     -0.507504   110A     -0.505559   111A     -0.502330
     112A     -0.494170   113A     -0.485593   114A     -0.481043
     115A     -0.455894   116A     -0.452173   117A     -0.443739
     118A     -0.434102   119A     -0.427501   120A     -0.425208
     121A     -0.414671   122A     -0.407708   123A     -0.400885
     124A     -0.380128   125A     -0.373934   126A     -0.346704
     127A     -0.345125   128A     -0.340420   129A     -0.315001
     130A     -0.311065   131A     -0.289864

  @DF-RHF Final Energy: -1572.31215675319754

   => Energetics <=

    Nuclear Repulsion Energy =           3688.4312121441262207
    One-Electron Energy =               -9475.1018447776750691
    Two-Electron Energy =                4214.3584758803517616
    Total Energy =                      -1572.3121567531970868

  Dipole Moment: [D]
     X:    -2.8960      Y:     6.6631      Z:    -1.1859     Total:     7.3614

  Basis Set: (6-311+G* AUX)
    Blend: HEAVY-AUG-CC-PVTZ-RI
	 Reference Energy          =   -1572.3121567531975415 [Eh]
	 Singles Energy            =      -0.0000000000000000 [Eh]
	 Same-Spin Energy          =      -1.4487542346591213 [Eh]
	 Opposite-Spin Energy      =      -3.8924474237515927 [Eh]
	 Correlation Energy        =      -5.3412016584107143 [Eh]
	 Total Energy              =   -1577.6533584116082238 [Eh]

	 ================> DF-SCS-MP2 Energies <==================
	-----------------------------------------------------------
	 SCS Same-Spin Scale       =       0.3333333333333333 [-]
	 SCS Opposite-Spin Scale   =       1.2000000000000000 [-]
	 SCS Same-Spin Energy      =      -0.4829180782197071 [Eh]
	 SCS Opposite-Spin Energy  =      -4.6709369085019112 [Eh]
	 SCS Correlation Energy    =      -5.1538549867216181 [Eh]
	 SCS Total Energy          =   -1577.4660117399191677 [Eh]
	-----------------------------------------------------------

*** Psi4 exiting successfully. Buy a developer a beer!
