 Gaussian 09, Revision A.02,
 Gaussian 09:  EM64L-G09RevA.02 11-Jun-2009

 --------------------------------------------------
 #P opt=(,maxcycle=400) wB97XD/6-31G* MaxDisk=100GB
 --------------------------------------------------

 -----------------------------------------------------------------
 MOLECULE0 Rotatable Bond Optimization on g2-node38.bme.utexas.edu
 -----------------------------------------------------------------
 Symbolic Z-matrix:
 Charge =  0 Multiplicity = 1

 SCF Done:  E(RwB97XD) =  -1581.47621478     A.U. after   16 cycles
 SCF Done:  E(RwB97XD) =  -1581.54467105     A.U. after   13 cycles
 SCF Done:  E(RwB97XD) =  -1581.64487984     A.U. after   14 cycles
 SCF Done:  E(RwB97XD) =  -1581.72142298     A.U. after   17 cycles
 SCF Done:  E(RwB97XD) =  -1581.75017666     A.U. after   16 cycles
 SCF Done:  E(RwB97XD) =  -1581.75512650     A.U. after   14 cycles
 SCF Done:  E(RwB97XD) =  -1581.75435289     A.U. after   17 cycles
 SCF Done:  E(RwB97XD) =  -1581.75768047     A.U. after   14 cycles
 SCF Done:  E(RwB97XD) =  -1581.76039674     A.U. after   14 cycles
 SCF Done:  E(RwB97XD) =  -1581.76200464     A.U. after   14 cycles
 SCF Done:  E(RwB97XD) =  -1581.76420940     A.U. after   12 cycles
 SCF Done:  E(RwB97XD) =  -1581.76414697     A.U. after   12 cycles
 SCF Done:  E(RwB97XD) =  -1581.76421557     A.U. after   12 cycles
 SCF Done:  E(RwB97XD) =  -1581.76423002     A.U. after   12 cycles
 SCF Done:  E(RwB97XD) =  -1581.76418128     A.U. after   12 cycles
 SCF Done:  E(RwB97XD) =  -1581.76420875     A.U. after   12 cycles
 SCF Done:  E(RwB97XD) =  -1581.76423199     A.U. after   12 cycles
 SCF Done:  E(RwB97XD) =  -1581.76423295     A.U. after    7 cycles
 SCF Done:  E(RwB97XD) =  -1581.76423333     A.U. after    7 cycles
 SCF Done:  E(RwB97XD) =  -1581.76423330     A.U. after    7 cycles
 Optimization completed.
    -- Stationary point found.

                         Standard orientation:
 ---------------------------------------------------------------------
 Center     Atomic      Atomic             Coordinates (Angstroms)
 Number     Number       Type             X           Y           Z
 ---------------------------------------------------------------------
      1          6           0        0.722240    4.657158   -0.589076
      2          6           0        2.045503    4.401570   -0.251810
      3          6           0        2.549930    3.112712   -0.418285
      4          6           0        1.680364    2.142603   -0.934285
      5          7           0        0.407318    2.370129   -1.251887
      6          6           0       -0.055575    3.611120   -1.074043
      7          6           0        3.931337    2.725964   -0.036279
      8          6           0        4.985428    3.626193    0.092888
      9          6           0        6.206504    3.084865    0.492605
     10          7           0        6.401023    1.794324    0.728137
     11          6           0        5.320506    1.007171    0.550128
     12          7           0        4.106008    1.422404    0.193295
     13          7           0        5.538287   -0.324920    0.770241
     14          6           0        4.687710   -1.425961    0.551397
     15          6           0        5.274342   -2.698795    0.406589
     16          6           0        4.426810   -3.775720    0.164165
     17          6           0        3.045287   -3.649197    0.043980
     18          6           0        2.486578   -2.382731    0.198759
     19          6           0        3.305657   -1.287902    0.478962
     20          7           0        1.115984   -2.094561    0.072078
     21          6           0        0.098322   -2.899334   -0.373141
     22          6           0       -1.204515   -2.180282   -0.582030
     23          6           0       -1.287895   -0.822673   -0.898761
     24          6           0       -2.529314   -0.219691   -1.070709
     25          6           0       -3.705422   -0.954654   -0.942734
     26          6           0       -3.617091   -2.318281   -0.645404
     27          6           0       -2.382232   -2.925144   -0.474001
     28          6           0       -5.054191   -0.298964   -1.148924
     29          7           0       -6.036636   -0.746988   -0.170953
     30          6           0       -7.410809   -0.376167   -0.507145
     31          6           0       -7.717053    1.104639   -0.232147
     32          7           0       -7.408021    1.509791    1.137950
     33          6           0       -8.390939    1.065936    2.110540
     34          6           0       -6.036916    1.132029    1.479012
     35          6           0       -5.729288   -0.347214    1.205284
     36          8           0        0.215757   -4.097870   -0.571953
     37          6           0        6.766970   -2.890988    0.495672
     38          1           0        0.293320    5.645499   -0.463468
     39          1           0        2.666520    5.191340    0.161008
     40          1           0        2.050599    1.133989   -1.097449
     41          1           0       -1.099986    3.773636   -1.329735
     42          1           0        4.882986    4.684343   -0.112838
     43          1           0        7.075025    3.727060    0.624723
     44          1           0        6.502343   -0.525228    0.990544
     45          1           0        4.867407   -4.762609    0.047172
     46          1           0        2.416395   -4.501559   -0.170119
     47          1           0        2.868548   -0.308802    0.607827
     48          1           0        0.865366   -1.141405    0.287343
     49          1           0       -0.402880   -0.209237   -1.047924
     50          1           0       -2.570046    0.839624   -1.311908
     51          1           0       -4.534429   -2.888147   -0.533490
     52          1           0       -2.306798   -3.984877   -0.252839
     53          1           0       -4.912761    0.796297   -1.178368
     54          1           0       -5.436810   -0.581341   -2.138676
     55          1           0       -7.597098   -0.617393   -1.560088
     56          1           0       -8.080042   -1.008838    0.091028
     57          1           0       -8.772097    1.321145   -0.436146
     58          1           0       -7.122986    1.733831   -0.909237
     59          1           0       -8.484625   -0.028294    2.226117
     60          1           0       -9.374895    1.455537    1.827990
     61          1           0       -8.136944    1.482609    3.091105
     62          1           0       -5.855988    1.369136    2.533668
     63          1           0       -5.359494    1.764463    0.888977
     64          1           0       -6.326016   -0.981417    1.873682
     65          1           0       -4.676973   -0.565957    1.412356
     66          1           0        7.163008   -2.623507    1.484940
     67          1           0        7.303070   -2.290310   -0.250247
     68          1           0        7.029003   -3.937444    0.320409
 ---------------------------------------------------------------------

 The electronic state is 1-A.
 Alpha  occ. eigenvalues --  -19.23157 -14.49129 -14.48282 -14.46602 -14.45982
 Alpha  occ. eigenvalues --  -14.45622 -14.43981 -14.43583 -10.41640 -10.39921
 Alpha  occ. eigenvalues --  -10.37508 -10.36238 -10.35179 -10.34891 -10.34525
 Alpha  occ. eigenvalues --  -10.34035 -10.33979 -10.33487 -10.32738 -10.32325
 Alpha  occ. eigenvalues --  -10.31758 -10.31457 -10.31351 -10.31233 -10.31032
 Alpha  occ. eigenvalues --  -10.30985 -10.30672 -10.30559 -10.30283 -10.30275
 Alpha  occ. eigenvalues --  -10.29955 -10.29787 -10.29727 -10.29440 -10.29336
 Alpha  occ. eigenvalues --  -10.28823 -10.28225  -1.13295  -1.12192  -1.06193
 Alpha  occ. eigenvalues --   -1.04437  -1.04368  -1.03419  -1.00606  -0.99923
 Alpha  occ. eigenvalues --   -0.95688  -0.94558  -0.92982  -0.89650  -0.87971
 Alpha  occ. eigenvalues --   -0.87275  -0.86222  -0.85512  -0.84126  -0.83659
 Alpha  occ. eigenvalues --   -0.81594  -0.79582  -0.78168  -0.77972  -0.76215
 Alpha  occ. eigenvalues --   -0.73736  -0.73442  -0.72822  -0.72523  -0.71149
 Alpha  occ. eigenvalues --   -0.69932  -0.69368  -0.67930  -0.66242  -0.65045
 Alpha  occ. eigenvalues --   -0.63796  -0.63203  -0.62023  -0.61689  -0.59965
 Alpha  occ. eigenvalues --   -0.58712  -0.58436  -0.57517  -0.56511  -0.55968
 Alpha  occ. eigenvalues --   -0.55707  -0.55216  -0.55115  -0.54965  -0.54204
 Alpha  occ. eigenvalues --   -0.53877  -0.53511  -0.53006  -0.52281  -0.52067
 Alpha  occ. eigenvalues --   -0.51680  -0.51422  -0.51133  -0.50850  -0.50613
 Alpha  occ. eigenvalues --   -0.50341  -0.49977  -0.49642  -0.49465  -0.48073
 Alpha  occ. eigenvalues --   -0.47669  -0.47140  -0.46762  -0.46489  -0.46049
 Alpha  occ. eigenvalues --   -0.45860  -0.45513  -0.44378  -0.43822  -0.43294
 Alpha  occ. eigenvalues --   -0.43170  -0.42749  -0.41928  -0.41849  -0.41525
 Alpha  occ. eigenvalues --   -0.41184  -0.40713  -0.39881  -0.38086  -0.37469
 Alpha  occ. eigenvalues --   -0.35660  -0.35148  -0.33891  -0.33274  -0.33180
 Alpha  occ. eigenvalues --   -0.32639  -0.31971  -0.31136  -0.29039  -0.27003
 Alpha  occ. eigenvalues --   -0.25680
 Alpha virt. eigenvalues --   -0.00248   0.03015   0.03659   0.04708   0.07082
 Alpha virt. eigenvalues --    0.07448   0.08504   0.10470   0.14824   0.15099
 Alpha virt. eigenvalues --    0.15583   0.16320   0.17435   0.17465   0.18664

 Mulliken atomic charges:
              1
     1  C   -0.198603
     2  C   -0.155444
     3  C    0.033855
     4  C    0.007596
     5  N   -0.435225
     6  C    0.031681
     7  C    0.297154
     8  C   -0.253913
     9  C    0.047962
    10  N   -0.492516
    11  C    0.708986
    12  N   -0.568233
    13  N   -0.795712
    14  C    0.287709
    15  C    0.120507
    16  C   -0.239977
    17  C   -0.190363
    18  C    0.354731
    19  C   -0.264155
    20  N   -0.766860
    21  C    0.598058
    22  C    0.018168
    23  C   -0.211526
    24  C   -0.228184
    25  C    0.114966
    26  C   -0.195493
    27  C   -0.183670
    28  C   -0.219580
    29  N   -0.401027
    30  C   -0.185380
    31  C   -0.187074
    32  N   -0.385142
    33  C   -0.350559
    34  C   -0.186534
    35  C   -0.193028
    36  O   -0.516860
    37  C   -0.607124
    38  H    0.186186
    39  H    0.185495
    40  H    0.201631
    41  H    0.181936
    42  H    0.180053
    43  H    0.188930
    44  H    0.368657
    45  H    0.160521
    46  H    0.216164
    47  H    0.193174
    48  H    0.358690
    49  H    0.186789
    50  H    0.165249
    51  H    0.183184
    52  H    0.196165
    53  H    0.136883
    54  H    0.178421
    55  H    0.158853
    56  H    0.163645
    57  H    0.158650
    58  H    0.160860
    59  H    0.136512
    60  H    0.168234
    61  H    0.168883
    62  H    0.159520
    63  H    0.158737
    64  H    0.162582
    65  H    0.175181
    66  H    0.177531
    67  H    0.183320
    68  H    0.190173
 Sum of Mulliken atomic charges =   0.00000

 Dipole moment (field-independent basis, Debye):
    X=              0.6175    Y=              6.3864    Z=              1.0076  Tot=              6.4948
 Quadrupole moment (field-independent basis, Debye-Ang):
   XX=           -182.4149   YY=           -204.7112   ZZ=           -218.5663
   XY=              7.6573   XZ=              1.9662   YZ=             -4.8069

 Normal termination of Gaussian 09 at Wed Mar 11 02:57:29 2020.
