                               Psi4 1.3.2 release

  ==> Input File <==

--------------------------------------------------------------------------
molecule {
0 1
 C    1.475223    4.911859   -3.000968
 C    2.788272    4.517211   -2.713278
 C    3.035130    3.253771   -2.139832
 C    1.894078    2.447319   -1.910170
 N    0.632983    2.808370   -2.177944
 C    0.434699    4.023202   -2.710642
 C    4.411969    2.751452   -1.784500
 C    5.608937    3.427912   -2.075466
 C    6.786657    2.791011   -1.670771
 N    6.824249    1.620901   -1.039363
 C    5.629616    1.045897   -0.791326
 N    4.452243    1.568428   -1.139852
 N    5.703035   -0.163129   -0.125071
 C    4.736887   -1.150791    0.280825
 C    5.195249   -2.456444    0.636873
 C    4.227765   -3.398158    1.020897
 C    2.856347   -3.129994    1.069942
 C    2.416498   -1.844915    0.733308
 C    3.362380   -0.881151    0.342861
 N    1.045978   -1.424399    0.723524
 C   -0.118921   -2.143532    0.871944
 C   -1.402259   -1.416895    0.531268
 C   -1.745684   -0.185827    1.111541
 C   -2.909658    0.477430    0.715460
 C   -3.771014   -0.064088   -0.258357
 C   -3.430507   -1.318900   -0.800806
 C   -2.268411   -1.989806   -0.412809
 C   -5.059772    0.652521   -0.667593
 N   -6.280482    0.493270    0.140921
 C   -6.386391    1.190092    1.443373
 C   -5.956306    0.344012    2.669991
 N   -6.634446   -0.971274    2.760418
 C   -7.980555   -0.980910    3.345381
 C   -6.469079   -1.681911    1.468878
 C   -6.897552   -0.850274    0.231905
 O   -0.147559   -3.296693    1.268878
 C    6.657740   -2.869416    0.608765
 H    1.261977    5.882812   -3.438098
 H    3.595461    5.212583   -2.929964
 H    2.002747    1.447158   -1.503478
 H   -0.603068    4.281893   -2.914500
 H    5.668618    4.378326   -2.590910
 H    7.768807    3.225885   -1.854074
 H    6.673853   -0.398813    0.014659
 H    4.544204   -4.404162    1.293349
 H    2.143539   -3.891946    1.359122
 H    3.031819    0.112502    0.086116
 H    0.910196   -0.448043    0.500040
 H   -1.088850    0.247304    1.862011
 H   -3.147214    1.436594    1.174887
 H   -4.085231   -1.788068   -1.534709
 H   -2.013936   -2.955763   -0.841770
 H   -4.851156    1.730685   -0.713688
 H   -5.321034    0.329342   -1.685544
 H   -5.801969    2.217222    1.410985
 H   -7.825787    1.535873    1.629471
 H   -6.194599    1.025717    3.788772
 H   -4.711975    0.120164    2.630725
 H   -8.687552   -0.432484    2.712799
 H   -7.964676   -0.519657    4.339399
 H   -8.335154   -2.011744    3.460330
 H   -7.081443   -2.741770    1.511023
 H   -5.046455   -2.011840    1.349771
 H   -8.354587   -0.649993    0.315672
 H   -6.700193   -1.466196   -0.776240
 H    7.281434   -2.270562    1.287784
 H    7.076688   -2.760287   -0.395500
 H    6.807105   -3.913241    0.897058
}
memory 20GB
set_num_threads(6)
psi4_io.set_default_path("/scratch/bdw2292")
set freeze_core True
E, wfn = energy('mp2/6-311+G*',return_wfn=True)
oeprop(wfn,"WIBERG_LOWDIN_INDICES")
clean()
--------------------------------------------------------------------------

    Molecular point group: c1

    Geometry (in Angstrom), charge = 0, multiplicity = 1:

       Center              X                  Y                   Z               Mass
    ------------   -----------------  -----------------  -----------------  -----------------
         C            1.223490401681     4.772979058084    -2.945373240578    12.000000000000
         C            2.536539401681     4.378331058084    -2.657683240578    12.000000000000
         C            2.783397401681     3.114891058084    -2.084237240578    12.000000000000
         C            1.642345401681     2.308439058084    -1.854575240578    12.000000000000
         N            0.381250401681     2.669490058084    -2.122349240578    14.003074004430
         C            0.182966401681     3.884322058084    -2.655047240578    12.000000000000
         C            4.160236401681     2.612572058084    -1.728905240578    12.000000000000
         C            5.357204401681     3.289032058084    -2.019871240578    12.000000000000
         C            6.534924401681     2.652131058084    -1.615176240578    12.000000000000
         N            6.572516401681     1.482021058084    -0.983768240578    14.003074004430
         C            5.377883401681     0.907017058084    -0.735731240578    12.000000000000
         N            4.200510401681     1.429548058084    -1.084257240578    14.003074004430
         N            5.451302401681    -0.302008941916    -0.069476240578    14.003074004430
         C            4.485154401681    -1.289670941916     0.336419759422    12.000000000000
         C            4.943516401681    -2.595323941916     0.692467759422    12.000000000000
         C            3.976032401681    -3.537037941916     1.076491759422    12.000000000000
         C            2.604614401681    -3.268873941916     1.125536759422    12.000000000000
         C            2.164765401681    -1.983794941916     0.788902759422    12.000000000000
         C            3.110647401681    -1.020030941916     0.398455759422    12.000000000000
         N            0.794245401681    -1.563278941916     0.779118759422    14.003074004430
         C           -0.370653598319    -2.282411941916     0.927538759422    12.000000000000
         C           -1.653991598319    -1.555774941916     0.586862759422    12.000000000000
         C           -1.997416598319    -0.324706941916     1.167135759422    12.000000000000
         C           -3.161390598319     0.338550058084     0.771054759422    12.000000000000
         C           -4.022746598319    -0.202967941916    -0.202762240578    12.000000000000
         C           -3.682239598319    -1.457779941916    -0.745211240578    12.000000000000
         C           -2.520143598319    -2.128685941916    -0.357214240578    12.000000000000
         C           -5.311504598319     0.513641058084    -0.611998240578    12.000000000000
         N           -6.532214598319     0.354390058084     0.196515759422    14.003074004430
         C           -6.638123598319     1.051212058084     1.498967759422    12.000000000000
         C           -6.208038598319     0.205132058084     2.725585759422    12.000000000000
         N           -6.886178598319    -1.110153941916     2.816012759422    14.003074004430
         C           -8.232287598319    -1.119789941916     3.400975759422    12.000000000000
         C           -6.720811598319    -1.820790941916     1.524472759422    12.000000000000
         C           -7.149284598319    -0.989153941916     0.287499759422    12.000000000000
         O           -0.399291598319    -3.435572941916     1.324472759422    15.994914619570
         C            6.406007401681    -3.008295941916     0.664359759422    12.000000000000
         H            1.010244401681     5.743932058084    -3.382503240578     1.007825032230
         H            3.343728401681     5.073703058084    -2.874369240578     1.007825032230
         H            1.751014401681     1.308278058084    -1.447883240578     1.007825032230
         H           -0.854800598319     4.143013058084    -2.858905240578     1.007825032230
         H            5.416885401681     4.239446058084    -2.535315240578     1.007825032230
         H            7.517074401681     3.087005058084    -1.798479240578     1.007825032230
         H            6.422120401681    -0.537692941916     0.070253759422     1.007825032230
         H            4.292471401681    -4.543041941916     1.348943759422     1.007825032230
         H            1.891806401681    -4.030825941916     1.414716759422     1.007825032230
         H            2.780086401681    -0.026377941916     0.141710759422     1.007825032230
         H            0.658463401681    -0.586922941916     0.555634759422     1.007825032230
         H           -1.340582598319     0.108424058084     1.917605759422     1.007825032230
         H           -3.398946598319     1.297714058084     1.230481759422     1.007825032230
         H           -4.336963598319    -1.926947941916    -1.479114240578     1.007825032230
         H           -2.265668598319    -3.094642941916    -0.786175240578     1.007825032230
         H           -5.102888598319     1.591805058084    -0.658093240578     1.007825032230
         H           -5.572766598319     0.190462058084    -1.629949240578     1.007825032230
         H           -6.053701598319     2.078342058084     1.466579759422     1.007825032230
         H           -8.077519598319     1.396993058084     1.685065759422     1.007825032230
         H           -6.446331598319     0.886837058084     3.844366759422     1.007825032230
         H           -4.963707598319    -0.018715941916     2.686319759422     1.007825032230
         H           -8.939284598319    -0.571363941916     2.768393759422     1.007825032230
         H           -8.216408598319    -0.658536941916     4.394993759422     1.007825032230
         H           -8.586886598319    -2.150623941916     3.515924759422     1.007825032230
         H           -7.333175598319    -2.880649941916     1.566617759422     1.007825032230
         H           -5.298187598319    -2.150719941916     1.405365759422     1.007825032230
         H           -8.606319598319    -0.788872941916     0.371266759422     1.007825032230
         H           -6.951925598319    -1.605075941916    -0.720645240578     1.007825032230
         H            7.029701401681    -2.409441941916     1.343378759422     1.007825032230
         H            6.824955401681    -2.899166941916    -0.339905240578     1.007825032230
         H            6.555372401681    -4.052120941916     0.952652759422     1.007825032230

  Charge       = 0
  Multiplicity = 1
  Basis Set: 6-311+G*
    Blend: 6-311+G*
  Basis Set: (6-311+G* AUX)
    Blend: HEAVY-AUG-CC-PVTZ-JKFIT

    Orbital Energies [Eh]
    ---------------------

    Doubly Occupied:

       1A    -20.525657     2A    -15.604917     3A    -15.603283
       4A    -15.581128     5A    -15.571626     6A    -15.568435
       7A    -15.568431     8A    -15.552743     9A    -11.373622
      10A    -11.366686    11A    -11.333307    12A    -11.312450
      13A    -11.311131    14A    -11.310833    15A    -11.304756
      16A    -11.302689    17A    -11.298867    18A    -11.297263
      19A    -11.296327    20A    -11.294491    21A    -11.286682
      22A    -11.277396    23A    -11.276818    24A    -11.262565
      25A    -11.260344    26A    -11.256300    27A    -11.255945
      28A    -11.252014    29A    -11.251008    30A    -11.249927
      31A    -11.248324    32A    -11.246987    33A    -11.244165
      34A    -11.240157    35A    -11.234414    36A    -11.233680
      37A    -11.225017    38A     -1.389814    39A     -1.344352
      40A     -1.274191    41A     -1.252683    42A     -1.243725
      43A     -1.242516    44A     -1.208143    45A     -1.198029
      46A     -1.164061    47A     -1.140555    48A     -1.113479
      49A     -1.073918    50A     -1.060997    51A     -1.046106
      52A     -1.038414    53A     -1.026711    54A     -1.008260
      55A     -0.991402    56A     -0.976651    57A     -0.947356
      58A     -0.927513    59A     -0.924182    60A     -0.900179
      61A     -0.870278    62A     -0.866464    63A     -0.855804
      64A     -0.844437    65A     -0.834861    66A     -0.826710
      67A     -0.824953    68A     -0.806117    69A     -0.780209
      70A     -0.754030    71A     -0.738393    72A     -0.732273
      73A     -0.720824    74A     -0.702034    75A     -0.695908
      76A     -0.682154    77A     -0.673699    78A     -0.665433
      79A     -0.658736    80A     -0.655585    81A     -0.652901
      82A     -0.642763    83A     -0.639673    84A     -0.631074
      85A     -0.621720    86A     -0.620872    87A     -0.612841
      88A     -0.607056    89A     -0.605473    90A     -0.602594
      91A     -0.599157    92A     -0.597152    93A     -0.591242
      94A     -0.588153    95A     -0.584593    96A     -0.581878
      97A     -0.580792    98A     -0.572970    99A     -0.567543
     100A     -0.557996   101A     -0.549696   102A     -0.541834
     103A     -0.530923   104A     -0.528379   105A     -0.526103
     106A     -0.520791   107A     -0.513748   108A     -0.512556
     109A     -0.508591   110A     -0.505136   111A     -0.501142
     112A     -0.497151   113A     -0.485436   114A     -0.481598
     115A     -0.457297   116A     -0.450129   117A     -0.437257
     118A     -0.436073   119A     -0.428464   120A     -0.426435
     121A     -0.412753   122A     -0.407160   123A     -0.396948
     124A     -0.380130   125A     -0.372252   126A     -0.346363
     127A     -0.343925   128A     -0.343235   129A     -0.315655
     130A     -0.311238   131A     -0.289574

  @DF-RHF Final Energy: -1572.31248387045866

   => Energetics <=

    Nuclear Repulsion Energy =           3645.4473718495346475
    One-Electron Energy =               -9389.1618428391866473
    Two-Electron Energy =                4171.4019871191931088
    Total Energy =                      -1572.3124838704588910

  Dipole Moment: [D]
     X:     2.3899      Y:     6.0362      Z:    -3.1066     Total:     7.1971

  Basis Set: (6-311+G* AUX)
    Blend: HEAVY-AUG-CC-PVTZ-RI
	 Reference Energy          =   -1572.3124838704586637 [Eh]
	 Singles Energy            =      -0.0000000000000000 [Eh]
	 Same-Spin Energy          =      -1.4474467083935478 [Eh]
	 Opposite-Spin Energy      =      -3.8911461634132989 [Eh]
	 Correlation Energy        =      -5.3385928718068465 [Eh]
	 Total Energy              =   -1577.6510767422655590 [Eh]

	 ================> DF-SCS-MP2 Energies <==================
	-----------------------------------------------------------
	 SCS Same-Spin Scale       =       0.3333333333333333 [-]
	 SCS Opposite-Spin Scale   =       1.2000000000000000 [-]
	 SCS Same-Spin Energy      =      -0.4824822361311826 [Eh]
	 SCS Opposite-Spin Energy  =      -4.6693753960959583 [Eh]
	 SCS Correlation Energy    =      -5.1518576322271405 [Eh]
	 SCS Total Energy          =   -1577.4643415026857838 [Eh]
	-----------------------------------------------------------

*** Psi4 exiting successfully. Buy a developer a beer!
