                               Psi4 1.3.2 release

  ==> Input File <==

--------------------------------------------------------------------------
molecule {
0 1
 C    0.521096    4.390505   -0.903818
 C   -0.870407    4.368230   -0.723087
 C   -1.553522    3.136566   -0.692133
 C   -0.750296    1.992089   -0.917847
 N    0.574967    1.988301   -1.091356
 C    1.200549    3.175673   -1.065656
 C   -3.024018    2.992838   -0.377302
 C   -3.934934    4.042945   -0.182183
 C   -5.230522    3.659716    0.186841
 N   -5.617844    2.403214    0.395406
 C   -4.670410    1.460220    0.211164
 N   -3.424282    1.719930   -0.192137
 N   -5.055221    0.146736    0.462900
 C   -4.396777   -1.128701    0.276081
 C   -5.146109   -2.342047    0.343281
 C   -4.431055   -3.545832    0.202152
 C   -3.053657   -3.619180   -0.047700
 C   -2.348651   -2.418759   -0.175910
 C   -3.022201   -1.207328    0.033069
 N   -0.963079   -2.271947   -0.486025
 C   -0.015406   -3.188125   -0.864136
 C    1.374958   -2.920131   -0.323221
 C    1.614977   -2.364494    0.943813
 C    2.915944   -2.031878    1.327361
 C    4.017743   -2.298506    0.492559
 C    3.770278   -2.973114   -0.718261
 C    2.470086   -3.278022   -1.125994
 C    5.431243   -1.879678    0.898001
 N    5.848150   -0.483014    0.680320
 C    5.428669    0.578622    1.623626
 C    4.243758    1.460605    1.145620
 N    4.390710    2.032427   -0.214844
 C    5.247427    3.220279   -0.324200
 C    4.692215    0.918433   -1.144726
 C    5.887232    0.034581   -0.705678
 O   -0.250322   -4.140059   -1.588985
 C   -6.643785   -2.382813    0.591540
 H    1.073789    5.324960   -0.893506
 H   -1.385321    5.310915   -0.553942
 H   -1.208015    1.012729   -0.967660
 H    2.283258    3.143093   -1.174404
 H   -3.683944    5.090633   -0.294432
 H   -5.999740    4.414917    0.347412
 H   -6.028510    0.121966    0.727761
 H   -4.969618   -4.490958    0.263187
 H   -2.552549   -4.567863   -0.201186
 H   -2.469920   -0.286461   -0.014950
 H   -0.597364   -1.329282   -0.465977
 H    0.773648   -2.121225    1.587910
 H    3.068542   -1.543262    2.289718
 H    4.595427   -3.217064   -1.386793
 H    2.279660   -3.749165   -2.087193
 H    5.565915   -2.102729    1.966398
 H    6.150071   -2.512087    0.356898
 H    5.271673    0.182801    2.586834
 H    6.657921    1.580189    1.744065
 H    4.062235    2.495195    2.052602
 H    3.056830    0.659790    1.137873
 H    6.285595    2.985221   -0.064265
 H    4.885658    4.009925    0.344438
 H    5.221514    3.609775   -1.348741
 H    4.809106    1.295692   -2.136559
 H    3.423471   -0.022845   -1.143501
 H    7.142286    0.906091   -0.832387
 H    6.013010   -1.036001   -1.620023
 H   -7.191861   -1.809101   -0.169129
 H   -6.900057   -1.959628    1.572893
 H   -7.054371   -3.401750    0.571017
}
memory 20GB
set_num_threads(6)
psi4_io.set_default_path("/scratch/bdw2292")
set freeze_core True
E, wfn = energy('mp2/6-311++G**',return_wfn=True)
oeprop(wfn,"WIBERG_LOWDIN_INDICES")
clean()
--------------------------------------------------------------------------

    Molecular point group: c1

    Geometry (in Angstrom), charge = 0, multiplicity = 1:

       Center              X                  Y                   Z               Mass
    ------------   -----------------  -----------------  -----------------  -----------------
         C            0.589909651517     4.403509242225    -0.795058196857    12.000000000000
         C           -0.801593348483     4.381234242225    -0.614327196857    12.000000000000
         C           -1.484708348483     3.149570242225    -0.583373196857    12.000000000000
         C           -0.681482348483     2.005093242225    -0.809087196857    12.000000000000
         N            0.643780651517     2.001305242225    -0.982596196857    14.003074004430
         C            1.269362651517     3.188677242225    -0.956896196857    12.000000000000
         C           -2.955204348483     3.005842242225    -0.268542196857    12.000000000000
         C           -3.866120348483     4.055949242225    -0.073423196857    12.000000000000
         C           -5.161708348483     3.672720242225     0.295600803143    12.000000000000
         N           -5.549030348483     2.416218242225     0.504165803143    14.003074004430
         C           -4.601596348483     1.473224242225     0.319923803143    12.000000000000
         N           -3.355468348483     1.732934242225    -0.083377196857    14.003074004430
         N           -4.986407348483     0.159740242225     0.571659803143    14.003074004430
         C           -4.327963348483    -1.115696757775     0.384840803143    12.000000000000
         C           -5.077295348483    -2.329042757775     0.452040803143    12.000000000000
         C           -4.362241348483    -3.532827757775     0.310911803143    12.000000000000
         C           -2.984843348483    -3.606175757775     0.061059803143    12.000000000000
         C           -2.279837348483    -2.405754757775    -0.067150196857    12.000000000000
         C           -2.953387348483    -1.194323757775     0.141828803143    12.000000000000
         N           -0.894265348483    -2.258942757775    -0.377265196857    14.003074004430
         C            0.053407651517    -3.175120757775    -0.755376196857    12.000000000000
         C            1.443771651517    -2.907126757775    -0.214461196857    12.000000000000
         C            1.683790651517    -2.351489757775     1.052572803143    12.000000000000
         C            2.984757651517    -2.018873757775     1.436120803143    12.000000000000
         C            4.086556651517    -2.285501757775     0.601318803143    12.000000000000
         C            3.839091651517    -2.960109757775    -0.609501196857    12.000000000000
         C            2.538899651517    -3.265017757775    -1.017234196857    12.000000000000
         C            5.500056651517    -1.866673757775     1.006760803143    12.000000000000
         N            5.916963651517    -0.470009757775     0.789079803143    14.003074004430
         C            5.497482651517     0.591626242225     1.732385803143    12.000000000000
         C            4.312571651517     1.473609242225     1.254379803143    12.000000000000
         N            4.459523651517     2.045431242225    -0.106084196857    14.003074004430
         C            5.316240651517     3.233283242225    -0.215440196857    12.000000000000
         C            4.761028651517     0.931437242225    -1.035966196857    12.000000000000
         C            5.956045651517     0.047585242225    -0.596918196857    12.000000000000
         O           -0.181508348483    -4.127054757775    -1.480225196857    15.994914619570
         C           -6.574971348483    -2.369808757775     0.700299803143    12.000000000000
         H            1.142602651517     5.337964242225    -0.784746196857     1.007825032230
         H           -1.316507348483     5.323919242225    -0.445182196857     1.007825032230
         H           -1.139201348483     1.025733242225    -0.858900196857     1.007825032230
         H            2.352071651517     3.156097242225    -1.065644196857     1.007825032230
         H           -3.615130348483     5.103637242225    -0.185672196857     1.007825032230
         H           -5.930926348483     4.427921242225     0.456171803143     1.007825032230
         H           -5.959696348483     0.134970242225     0.836520803143     1.007825032230
         H           -4.900804348483    -4.477953757775     0.371946803143     1.007825032230
         H           -2.483735348483    -4.554858757775    -0.092426196857     1.007825032230
         H           -2.401106348483    -0.273456757775     0.093809803143     1.007825032230
         H           -0.528550348483    -1.316277757775    -0.357217196857     1.007825032230
         H            0.842461651517    -2.108220757775     1.696669803143     1.007825032230
         H            3.137355651517    -1.530257757775     2.398477803143     1.007825032230
         H            4.664240651517    -3.204059757775    -1.278033196857     1.007825032230
         H            2.348473651517    -3.736160757775    -1.978433196857     1.007825032230
         H            5.634728651517    -2.089724757775     2.075157803143     1.007825032230
         H            6.218884651517    -2.499082757775     0.465657803143     1.007825032230
         H            5.340486651517     0.195805242225     2.695593803143     1.007825032230
         H            6.726734651517     1.593193242225     1.852824803143     1.007825032230
         H            4.131048651517     2.508199242225     2.161361803143     1.007825032230
         H            3.125643651517     0.672794242225     1.246632803143     1.007825032230
         H            6.354408651517     2.998225242225     0.044494803143     1.007825032230
         H            4.954471651517     4.022929242225     0.453197803143     1.007825032230
         H            5.290327651517     3.622779242225    -1.239981196857     1.007825032230
         H            4.877919651517     1.308696242225    -2.027799196857     1.007825032230
         H            3.492284651517    -0.009840757775    -1.034741196857     1.007825032230
         H            7.211099651517     0.919095242225    -0.723627196857     1.007825032230
         H            6.081823651517    -1.022996757775    -1.511263196857     1.007825032230
         H           -7.123047348483    -1.796096757775    -0.060369196857     1.007825032230
         H           -6.831243348483    -1.946623757775     1.681652803143     1.007825032230
         H           -6.985557348483    -3.388745757775     0.679776803143     1.007825032230

  Charge       = 0
  Multiplicity = 1
  Basis Set: 6-311++G**
    Blend: 6-311++G**
  Basis Set: (6-311++G** AUX)
    Blend: AUG-CC-PVTZ-JKFIT

    Orbital Energies [Eh]
    ---------------------

    Doubly Occupied:

       1A    -20.530518     2A    -15.601970     3A    -15.591316
       4A    -15.579395     5A    -15.574441     6A    -15.571278
       7A    -15.569654     8A    -15.564143     9A    -11.372420
      10A    -11.364241    11A    -11.340525    12A    -11.329964
      13A    -11.325606    14A    -11.315322    15A    -11.310937
      16A    -11.305880    17A    -11.300205    18A    -11.292463
      19A    -11.290693    20A    -11.286105    21A    -11.283308
      22A    -11.280919    23A    -11.271365    24A    -11.260429
      25A    -11.257908    26A    -11.257013    27A    -11.255416
      28A    -11.254736    29A    -11.251193    30A    -11.249101
      31A    -11.248719    32A    -11.247167    33A    -11.244772
      34A    -11.240988    35A    -11.233699    36A    -11.226724
      37A    -11.224303    38A     -1.390426    39A     -1.340178
      40A     -1.267414    41A     -1.253277    42A     -1.250511
      43A     -1.237530    44A     -1.210806    45A     -1.205316
      46A     -1.164271    47A     -1.137930    48A     -1.107264
      49A     -1.069549    50A     -1.060498    51A     -1.040810
      52A     -1.036583    53A     -1.026287    54A     -1.006609
      55A     -1.001119    56A     -0.983204    57A     -0.948058
      58A     -0.932099    59A     -0.919378    60A     -0.896001
      61A     -0.871359    62A     -0.864811    63A     -0.852434
      64A     -0.851016    65A     -0.840306    66A     -0.831153
      67A     -0.821706    68A     -0.805372    69A     -0.775666
      70A     -0.748592    71A     -0.733794    72A     -0.729781
      73A     -0.714705    74A     -0.703181    75A     -0.695081
      76A     -0.678480    77A     -0.676722    78A     -0.661666
      79A     -0.660066    80A     -0.653980    81A     -0.652712
      82A     -0.647426    83A     -0.638590    84A     -0.631877
      85A     -0.626147    86A     -0.621513    87A     -0.617076
      88A     -0.613609    89A     -0.611355    90A     -0.607057
      91A     -0.599440    92A     -0.597713    93A     -0.596138
      94A     -0.585192    95A     -0.583675    96A     -0.580910
      97A     -0.577443    98A     -0.574632    99A     -0.553739
     100A     -0.552040   101A     -0.546792   102A     -0.536855
     103A     -0.533609   104A     -0.528166   105A     -0.522648
     106A     -0.515597   107A     -0.512097   108A     -0.509077
     109A     -0.505755   110A     -0.502841   111A     -0.499926
     112A     -0.493355   113A     -0.484758   114A     -0.479257
     115A     -0.467101   116A     -0.447238   117A     -0.434113
     118A     -0.431583   119A     -0.426571   120A     -0.423664
     121A     -0.408897   122A     -0.391700   123A     -0.390388
     124A     -0.382618   125A     -0.368217   126A     -0.347855
     127A     -0.345396   128A     -0.338267   129A     -0.316861
     130A     -0.311227   131A     -0.288020

  @DF-RHF Final Energy: -1572.24606401739538

   => Energetics <=

    Nuclear Repulsion Energy =           3806.0935635895320956
    One-Electron Energy =               -9710.4421542460786441
    Two-Electron Energy =                4332.1025266391516197
    Total Energy =                      -1572.2460640173949287

  Dipole Moment: [D]
     X:     0.6098      Y:     5.7428      Z:     2.1209     Total:     6.1522

  Basis Set: (6-311++G** AUX)
    Blend: AUG-CC-PVTZ-RI
	 Reference Energy          =   -1572.2460640173953834 [Eh]
	 Singles Energy            =      -0.0000000000000000 [Eh]
	 Same-Spin Energy          =      -1.4749171504589365 [Eh]
	 Opposite-Spin Energy      =      -4.0584622432118458 [Eh]
	 Correlation Energy        =      -5.5333793936707822 [Eh]
	 Total Energy              =   -1577.7794434110662678 [Eh]

	 ================> DF-SCS-MP2 Energies <==================
	-----------------------------------------------------------
	 SCS Same-Spin Scale       =       0.3333333333333333 [-]
	 SCS Opposite-Spin Scale   =       1.2000000000000000 [-]
	 SCS Same-Spin Energy      =      -0.4916390501529788 [Eh]
	 SCS Opposite-Spin Energy  =      -4.8701546918542151 [Eh]
	 SCS Correlation Energy    =      -5.3617937420071939 [Eh]
	 SCS Total Energy          =   -1577.6078577594025774 [Eh]
	-----------------------------------------------------------

*** Psi4 exiting successfully. Buy a developer a beer!
