 Gaussian 09, Revision A.02,
 Gaussian 09:  EM64L-G09RevA.02 11-Jun-2009

 --------------------------------------------------
 #P opt=(,maxcycle=400) wB97XD/6-31G* MaxDisk=100GB
 --------------------------------------------------

 -----------------------------------------------------------------
 MOLECULE0 Rotatable Bond Optimization on g2-node38.bme.utexas.edu
 -----------------------------------------------------------------
 Symbolic Z-matrix:
 Charge =  0 Multiplicity = 1

 SCF Done:  E(RwB97XD) =  -1581.46151407     A.U. after   16 cycles
 SCF Done:  E(RwB97XD) =  -1581.52963423     A.U. after   13 cycles
 SCF Done:  E(RwB97XD) =  -1581.64276736     A.U. after   14 cycles
 SCF Done:  E(RwB97XD) =  -1581.70892859     A.U. after   15 cycles
 SCF Done:  E(RwB97XD) =  -1581.72669034     A.U. after   17 cycles
 SCF Done:  E(RwB97XD) =  -1581.72406848     A.U. after   16 cycles
 SCF Done:  E(RwB97XD) =  -1581.74008593     A.U. after   14 cycles
 SCF Done:  E(RwB97XD) =  -1581.75153675     A.U. after   14 cycles
 SCF Done:  E(RwB97XD) =  -1581.75695882     A.U. after   14 cycles
 SCF Done:  E(RwB97XD) =  -1581.75975110     A.U. after   16 cycles
 SCF Done:  E(RwB97XD) =  -1581.76309603     A.U. after   13 cycles
 SCF Done:  E(RwB97XD) =  -1581.76317987     A.U. after   12 cycles
 SCF Done:  E(RwB97XD) =  -1581.76320316     A.U. after   12 cycles
 SCF Done:  E(RwB97XD) =  -1581.76320316     A.U. after   12 cycles
 SCF Done:  E(RwB97XD) =  -1581.76321213     A.U. after   11 cycles
 SCF Done:  E(RwB97XD) =  -1581.76321420     A.U. after   10 cycles
 SCF Done:  E(RwB97XD) =  -1581.76321554     A.U. after    9 cycles
 SCF Done:  E(RwB97XD) =  -1581.76321590     A.U. after    8 cycles
 SCF Done:  E(RwB97XD) =  -1581.76321603     A.U. after    7 cycles
 SCF Done:  E(RwB97XD) =  -1581.76321617     A.U. after    6 cycles
 Optimization completed.
    -- Stationary point found.

                         Standard orientation:
 ---------------------------------------------------------------------
 Center     Atomic      Atomic             Coordinates (Angstroms)
 Number     Number       Type             X           Y           Z
 ---------------------------------------------------------------------
      1          6           0       -0.473374    4.275477   -0.771316
      2          6           0        0.871195    4.192712   -0.430220
      3          6           0        1.547486    2.990625   -0.631303
      4          6           0        0.820871    1.926578   -1.182112
      5          7           0       -0.468141    1.990406   -1.511032
      6          6           0       -1.096914    3.150532   -1.300053
      7          6           0        2.969382    2.789366   -0.253762
      8          6           0        3.900464    3.819273   -0.154483
      9          6           0        5.186398    3.446622    0.235321
     10          7           0        5.545697    2.197264    0.496542
     11          6           0        4.572230    1.274895    0.354329
     12          7           0        3.312187    1.523657   -0.002165
     13          7           0        4.960971   -0.011125    0.612780
     14          6           0        4.245186   -1.217208    0.494487
     15          6           0        4.968909   -2.426927    0.479712
     16          6           0        4.248257   -3.609770    0.338679
     17          6           0        2.862490   -3.651006    0.195912
     18          6           0        2.171266   -2.443421    0.217418
     19          6           0        2.859627   -1.243451    0.393657
     20          7           0        0.784723   -2.305440    0.039659
     21          6           0       -0.155301   -3.232574   -0.330870
     22          6           0       -1.474707   -2.601059   -0.675223
     23          6           0       -1.549754   -1.357983   -1.310552
     24          6           0       -2.782069   -0.778635   -1.574339
     25          6           0       -3.965500   -1.409917   -1.191584
     26          6           0       -3.883874   -2.677494   -0.608339
     27          6           0       -2.653798   -3.274457   -0.358058
     28          6           0       -5.302488   -0.704095   -1.348736
     29          7           0       -5.692723    0.225976   -0.299954
     30          6           0       -5.025887    1.522726   -0.247765
     31          6           0       -3.815975    1.577760    0.702801
     32          7           0       -4.113334    1.068803    2.038826
     33          6           0       -4.902259    1.977798    2.851198
     34          6           0       -4.679382   -0.274637    1.939767
     35          6           0       -5.914418   -0.340356    1.025941
     36          8           0        0.036656   -4.436427   -0.364639
     37          6           0        6.471696   -2.442734    0.599284
     38          1           0       -1.032686    5.192203   -0.618567
     39          1           0        1.376381    5.045804    0.013509
     40          1           0        1.324892    0.981176   -1.366065
     41          1           0       -2.151894    3.177440   -1.564326
     42          1           0        3.661549    4.851097   -0.380298
     43          1           0        5.968012    4.196721    0.338168
     44          1           0        5.942189   -0.077214    0.838741
     45          1           0        4.796452   -4.548475    0.325616
     46          1           0        2.333508   -4.585077    0.065354
     47          1           0        2.314625   -0.312041    0.418811
     48          1           0        0.446176   -1.359008    0.131012
     49          1           0       -0.653281   -0.832887   -1.627226
     50          1           0       -2.809867    0.190874   -2.065144
     51          1           0       -4.798628   -3.197460   -0.332288
     52          1           0       -2.590177   -4.257104    0.098685
     53          1           0       -5.308001   -0.148681   -2.294413
     54          1           0       -6.094853   -1.459894   -1.423477
     55          1           0       -4.724175    1.804218   -1.263760
     56          1           0       -5.767276    2.267761    0.078259
     57          1           0       -3.458735    2.611669    0.792424
     58          1           0       -2.991092    0.982606    0.295616
     59          1           0       -5.912333    2.205336    2.467160
     60          1           0       -4.364629    2.927210    2.951461
     61          1           0       -5.017956    1.550795    3.853364
     62          1           0       -4.938009   -0.623249    2.947020
     63          1           0       -3.897438   -0.938078    1.552330
     64          1           0       -6.743237    0.208054    1.497996
     65          1           0       -6.248091   -1.378168    0.914918
     66          1           0        6.817252   -2.031221    1.557532
     67          1           0        6.951923   -1.866265   -0.202081
     68          1           0        6.851960   -3.465356    0.535440
 ---------------------------------------------------------------------

 The electronic state is 1-A.
 Alpha  occ. eigenvalues --  -19.23411 -14.49282 -14.48321 -14.46751 -14.46096
 Alpha  occ. eigenvalues --  -14.45764 -14.43616 -14.43135 -10.41778 -10.40081
 Alpha  occ. eigenvalues --  -10.37615 -10.36338 -10.35325 -10.35084 -10.34623
 Alpha  occ. eigenvalues --  -10.34135 -10.34016 -10.33623 -10.32863 -10.32367
 Alpha  occ. eigenvalues --  -10.31860 -10.31492 -10.31179 -10.30936 -10.30708
 Alpha  occ. eigenvalues --  -10.30688 -10.30677 -10.30586 -10.30534 -10.30403
 Alpha  occ. eigenvalues --  -10.30377 -10.30220 -10.30020 -10.29975 -10.29575
 Alpha  occ. eigenvalues --  -10.28740 -10.28405  -1.13443  -1.12295  -1.06322
 Alpha  occ. eigenvalues --   -1.04565  -1.03828  -1.03634  -1.00715  -0.99557
 Alpha  occ. eigenvalues --   -0.96086  -0.94671  -0.93098  -0.89777  -0.88124
 Alpha  occ. eigenvalues --   -0.87388  -0.86228  -0.85399  -0.84542  -0.83783
 Alpha  occ. eigenvalues --   -0.81888  -0.79581  -0.78270  -0.77798  -0.76320
 Alpha  occ. eigenvalues --   -0.73881  -0.73301  -0.73025  -0.72621  -0.70870
 Alpha  occ. eigenvalues --   -0.70314  -0.69614  -0.68039  -0.66413  -0.65150
 Alpha  occ. eigenvalues --   -0.63656  -0.63408  -0.62228  -0.61762  -0.60211
 Alpha  occ. eigenvalues --   -0.58848  -0.58045  -0.57570  -0.56611  -0.56101
 Alpha  occ. eigenvalues --   -0.55817  -0.55236  -0.55134  -0.54965  -0.54255
 Alpha  occ. eigenvalues --   -0.53867  -0.53239  -0.53154  -0.52612  -0.52174
 Alpha  occ. eigenvalues --   -0.51912  -0.51509  -0.51370  -0.50999  -0.50575
 Alpha  occ. eigenvalues --   -0.50365  -0.50116  -0.49974  -0.49497  -0.48335
 Alpha  occ. eigenvalues --   -0.47217  -0.46906  -0.46619  -0.46319  -0.46211
 Alpha  occ. eigenvalues --   -0.45762  -0.45235  -0.44797  -0.44045  -0.43932
 Alpha  occ. eigenvalues --   -0.43328  -0.43017  -0.42141  -0.41766  -0.41439
 Alpha  occ. eigenvalues --   -0.40964  -0.40776  -0.39912  -0.38187  -0.37592
 Alpha  occ. eigenvalues --   -0.35821  -0.35293  -0.34001  -0.33446  -0.33373
 Alpha  occ. eigenvalues --   -0.32818  -0.31904  -0.30772  -0.29115  -0.27079
 Alpha  occ. eigenvalues --   -0.24996
 Alpha virt. eigenvalues --   -0.00292   0.02872   0.03585   0.04480   0.06433
 Alpha virt. eigenvalues --    0.07258   0.08204   0.10372   0.13887   0.14814
 Alpha virt. eigenvalues --    0.15728   0.16386   0.17252   0.17441   0.18252

 Mulliken atomic charges:
              1
     1  C   -0.197839
     2  C   -0.154406
     3  C    0.035505
     4  C    0.009585
     5  N   -0.437522
     6  C    0.035727
     7  C    0.295171
     8  C   -0.254765
     9  C    0.049021
    10  N   -0.493040
    11  C    0.714375
    12  N   -0.568415
    13  N   -0.802070
    14  C    0.291482
    15  C    0.119865
    16  C   -0.240380
    17  C   -0.191300
    18  C    0.358132
    19  C   -0.269687
    20  N   -0.757959
    21  C    0.585733
    22  C    0.015200
    23  C   -0.205367
    24  C   -0.217904
    25  C    0.155968
    26  C   -0.223071
    27  C   -0.178383
    28  C   -0.263559
    29  N   -0.382221
    30  C   -0.183900
    31  C   -0.181782
    32  N   -0.385721
    33  C   -0.349276
    34  C   -0.182627
    35  C   -0.186514
    36  O   -0.513280
    37  C   -0.607374
    38  H    0.186140
    39  H    0.186725
    40  H    0.198121
    41  H    0.179048
    42  H    0.180744
    43  H    0.189491
    44  H    0.369214
    45  H    0.160821
    46  H    0.213082
    47  H    0.199365
    48  H    0.361556
    49  H    0.185458
    50  H    0.172065
    51  H    0.163619
    52  H    0.195609
    53  H    0.170281
    54  H    0.168916
    55  H    0.148159
    56  H    0.158361
    57  H    0.141661
    58  H    0.174890
    59  H    0.135273
    60  H    0.164119
    61  H    0.167875
    62  H    0.153489
    63  H    0.172923
    64  H    0.159395
    65  H    0.154998
    66  H    0.178042
    67  H    0.182743
    68  H    0.190420
 Sum of Mulliken atomic charges =   0.00000

 Dipole moment (field-independent basis, Debye):
    X=              0.5806    Y=              6.5721    Z=              0.4337  Tot=              6.6119
 Quadrupole moment (field-independent basis, Debye-Ang):
   XX=           -193.2972   YY=           -202.5010   ZZ=           -220.4860
   XY=              3.1079   XZ=             -1.2800   YZ=             -5.2204

 Normal termination of Gaussian 09 at Tue Mar 10 16:28:35 2020.
