                               Psi4 1.3.2 release

  ==> Input File <==

--------------------------------------------------------------------------
molecule {
0 1
 C    0.427796    4.615590   -2.056536
 C    1.727490    4.478747   -1.549497
 C    2.229525    3.199613   -1.239744
 C    1.357381    2.114359   -1.503077
 N    0.115213    2.223731   -1.992015
 C   -0.336056    3.459786   -2.255566
 C    3.611303    2.948129   -0.689136
 C    4.628994    3.908977   -0.571658
 C    5.858269    3.438441   -0.093298
 N    6.096116    2.175521    0.256197
 C    5.055341    1.326687    0.136701
 N    3.849486    1.678957   -0.311865
 N    5.302101    0.017011    0.515691
 C    4.507386   -1.187428    0.476295
 C    5.140971   -2.461361    0.601298
 C    4.323533   -3.600702    0.500187
 C    2.938212   -3.555828    0.300591
 C    2.320526   -2.302573    0.237291
 C    3.115968   -1.149303    0.320726
 N    0.919449   -2.063785    0.060346
 C   -0.127960   -2.906688   -0.233703
 C   -1.439408   -2.243480   -0.615133
 C   -1.515297   -1.052220   -1.356614
 C   -2.749175   -0.440484   -1.587371
 C   -3.954735   -1.012021   -1.134665
 C   -3.866858   -2.250809   -0.471206
 C   -2.635511   -2.857485   -0.209615
 C   -5.280958   -0.270730   -1.326795
 N   -6.043237    0.244616   -0.174940
 C   -5.532189    1.459765    0.501638
 C   -4.631194    1.184988    1.732779
 N   -5.251375    0.293266    2.743772
 C   -6.184730    0.919351    3.687032
 C   -5.717530   -0.941654    2.068572
 C   -6.615515   -0.680793    0.829932
 O   -0.033536   -4.122973   -0.179008
 C    6.638808   -2.630224    0.793121
 H    0.016471    5.592342   -2.294545
 H    2.320322    5.375817   -1.387740
 H    1.687155    1.093336   -1.337983
 H   -1.348935    3.511912   -2.652043
 H    4.526560    4.949859   -0.853843
 H    6.719885    4.095981    0.017878
 H    6.268400   -0.076190    0.789762
 H    4.779648   -4.587611    0.568422
 H    2.343814   -4.457201    0.215874
 H    2.639887   -0.184426    0.274736
 H    0.664378   -1.086568    0.088955
 H   -0.604920   -0.577264   -1.714412
 H   -2.756023    0.518629   -2.105334
 H   -4.774124   -2.756442   -0.145254
 H   -2.582938   -3.804157    0.323386
 H   -5.093874    0.594116   -1.978954
 H   -5.961161   -0.946748   -1.863908
 H   -4.848865    2.239037   -0.391957
 H   -6.665511    2.223553    0.934442
 H   -4.299787    2.174129    2.241743
 H   -3.367604    0.477919    1.241643
 H   -7.076564    1.289713    3.169092
 H   -5.699638    1.759171    4.197744
 H   -6.493228    0.196077    4.450785
 H   -6.456637   -1.723493    3.009865
 H   -4.846656   -1.512513    1.807513
 H   -7.862890   -0.034800    1.331100
 H   -6.945942   -1.652433    0.336365
 H    7.012270   -2.122503    1.694335
 H    7.190308   -2.223564   -0.059199
 H    6.935951   -3.678134    0.886386
}
memory 20GB
set_num_threads(6)
psi4_io.set_default_path("/scratch/bdw2292")
set freeze_core True
E, wfn = energy('mp2/6-311++G**',return_wfn=True)
oeprop(wfn,"WIBERG_LOWDIN_INDICES")
clean()
--------------------------------------------------------------------------

    Molecular point group: c1

    Geometry (in Angstrom), charge = 0, multiplicity = 1:

       Center              X                  Y                   Z               Mass
    ------------   -----------------  -----------------  -----------------  -----------------
         C            0.277795144333     4.573280077012    -1.989412382873    12.000000000000
         C            1.577489144333     4.436437077012    -1.482373382873    12.000000000000
         C            2.079524144333     3.157303077012    -1.172620382873    12.000000000000
         C            1.207380144333     2.072049077012    -1.435953382873    12.000000000000
         N           -0.034787855667     2.181421077012    -1.924891382873    14.003074004430
         C           -0.486056855667     3.417476077012    -2.188442382873    12.000000000000
         C            3.461302144333     2.905819077012    -0.622012382873    12.000000000000
         C            4.478993144333     3.866667077012    -0.504534382873    12.000000000000
         C            5.708268144333     3.396131077012    -0.026174382873    12.000000000000
         N            5.946115144333     2.133211077012     0.323320617127    14.003074004430
         C            4.905340144333     1.284377077012     0.203824617127    12.000000000000
         N            3.699485144333     1.636647077012    -0.244741382873    14.003074004430
         N            5.152100144333    -0.025298922988     0.582814617127    14.003074004430
         C            4.357385144333    -1.229737922988     0.543418617127    12.000000000000
         C            4.990970144333    -2.503670922988     0.668421617127    12.000000000000
         C            4.173532144333    -3.643011922988     0.567310617127    12.000000000000
         C            2.788211144333    -3.598137922988     0.367714617127    12.000000000000
         C            2.170525144333    -2.344882922988     0.304414617127    12.000000000000
         C            2.965967144333    -1.191612922988     0.387849617127    12.000000000000
         N            0.769448144333    -2.106094922988     0.127469617127    14.003074004430
         C           -0.277960855667    -2.948997922988    -0.166579382873    12.000000000000
         C           -1.589408855667    -2.285789922988    -0.548009382873    12.000000000000
         C           -1.665297855667    -1.094529922988    -1.289490382873    12.000000000000
         C           -2.899175855667    -0.482793922988    -1.520247382873    12.000000000000
         C           -4.104735855667    -1.054330922988    -1.067541382873    12.000000000000
         C           -4.016858855667    -2.293118922988    -0.404082382873    12.000000000000
         C           -2.785511855667    -2.899794922988    -0.142491382873    12.000000000000
         C           -5.430958855667    -0.313039922988    -1.259671382873    12.000000000000
         N           -6.193237855667     0.202306077012    -0.107816382873    14.003074004430
         C           -5.682189855667     1.417455077012     0.568761617127    12.000000000000
         C           -4.781194855667     1.142678077012     1.799902617127    12.000000000000
         N           -5.401375855667     0.250956077012     2.810895617127    14.003074004430
         C           -6.334730855667     0.877041077012     3.754155617127    12.000000000000
         C           -5.867530855667    -0.983963922988     2.135695617127    12.000000000000
         C           -6.765515855667    -0.723102922988     0.897055617127    12.000000000000
         O           -0.183536855667    -4.165282922988    -0.111884382873    15.994914619570
         C            6.488807144333    -2.672533922988     0.860244617127    12.000000000000
         H           -0.133529855667     5.550032077012    -2.227421382873     1.007825032230
         H            2.170321144333     5.333507077012    -1.320616382873     1.007825032230
         H            1.537154144333     1.051026077012    -1.270859382873     1.007825032230
         H           -1.498935855667     3.469602077012    -2.584919382873     1.007825032230
         H            4.376559144333     4.907549077012    -0.786719382873     1.007825032230
         H            6.569884144333     4.053671077012     0.085001617127     1.007825032230
         H            6.118399144333    -0.118499922988     0.856885617127     1.007825032230
         H            4.629647144333    -4.629920922988     0.635545617127     1.007825032230
         H            2.193813144333    -4.499510922988     0.282997617127     1.007825032230
         H            2.489886144333    -0.226735922988     0.341859617127     1.007825032230
         H            0.514377144333    -1.128877922988     0.156078617127     1.007825032230
         H           -0.754920855667    -0.619573922988    -1.647288382873     1.007825032230
         H           -2.906023855667     0.476319077012    -2.038210382873     1.007825032230
         H           -4.924124855667    -2.798751922988    -0.078130382873     1.007825032230
         H           -2.732938855667    -3.846466922988     0.390509617127     1.007825032230
         H           -5.243874855667     0.551806077012    -1.911830382873     1.007825032230
         H           -6.111161855667    -0.989057922988    -1.796784382873     1.007825032230
         H           -4.998865855667     2.196727077012    -0.324833382873     1.007825032230
         H           -6.815511855667     2.181243077012     1.001565617127     1.007825032230
         H           -4.449787855667     2.131819077012     2.308866617127     1.007825032230
         H           -3.517604855667     0.435609077012     1.308766617127     1.007825032230
         H           -7.226564855667     1.247403077012     3.236215617127     1.007825032230
         H           -5.849638855667     1.716861077012     4.264867617127     1.007825032230
         H           -6.643228855667     0.153767077012     4.517908617127     1.007825032230
         H           -6.606637855667    -1.765802922988     3.076988617127     1.007825032230
         H           -4.996656855667    -1.554822922988     1.874636617127     1.007825032230
         H           -8.012890855667    -0.077109922988     1.398223617127     1.007825032230
         H           -7.095942855667    -1.694742922988     0.403488617127     1.007825032230
         H            6.862269144333    -2.164812922988     1.761458617127     1.007825032230
         H            7.040307144333    -2.265873922988     0.007924617127     1.007825032230
         H            6.785950144333    -3.720443922988     0.953509617127     1.007825032230

  Charge       = 0
  Multiplicity = 1
  Basis Set: 6-311++G**
    Blend: 6-311++G**
  Basis Set: (6-311++G** AUX)
    Blend: AUG-CC-PVTZ-JKFIT

    Orbital Energies [Eh]
    ---------------------

    Doubly Occupied:

       1A    -20.521392     2A    -15.604271     3A    -15.600796
       4A    -15.587283     5A    -15.573916     6A    -15.570810
       7A    -15.568634     8A    -15.555749     9A    -11.374926
      10A    -11.363830    11A    -11.334853    12A    -11.325173
      13A    -11.314216    14A    -11.308310    15A    -11.307531
      16A    -11.301908    17A    -11.301759    18A    -11.300774
      19A    -11.292459    20A    -11.290111    21A    -11.288679
      22A    -11.280966    23A    -11.277262    24A    -11.266563
      25A    -11.256785    26A    -11.255735    27A    -11.253069
      28A    -11.251678    29A    -11.249204    30A    -11.247267
      31A    -11.247077    32A    -11.244346    33A    -11.244051
      34A    -11.239933    35A    -11.233932    36A    -11.230419
      37A    -11.224966    38A     -1.385504    39A     -1.345175
      40A     -1.278846    41A     -1.250730    42A     -1.246099
      43A     -1.241361    44A     -1.209762    45A     -1.200424
      46A     -1.160655    47A     -1.139502    48A     -1.116362
      49A     -1.075607    50A     -1.058975    51A     -1.048616
      52A     -1.037441    53A     -1.022184    54A     -1.007791
      55A     -0.997349    56A     -0.977400    57A     -0.947694
      58A     -0.929358    59A     -0.926857    60A     -0.901068
      61A     -0.873084    62A     -0.865689    63A     -0.858366
      64A     -0.840548    65A     -0.837582    66A     -0.829621
      67A     -0.824446    68A     -0.805807    69A     -0.778003
      70A     -0.754519    71A     -0.738400    72A     -0.730577
      73A     -0.722058    74A     -0.713864    75A     -0.698583
      76A     -0.682824    77A     -0.671341    78A     -0.665029
      79A     -0.658278    80A     -0.655464    81A     -0.651856
      82A     -0.639137    83A     -0.636615    84A     -0.629682
      85A     -0.623056    86A     -0.619437    87A     -0.616380
      88A     -0.612806    89A     -0.607126    90A     -0.603232
      91A     -0.599605    92A     -0.596399    93A     -0.591210
      94A     -0.589480    95A     -0.586807    96A     -0.581659
      97A     -0.579771    98A     -0.577350    99A     -0.565197
     100A     -0.561848   101A     -0.547795   102A     -0.545054
     103A     -0.537750   104A     -0.526225   105A     -0.522944
     106A     -0.522355   107A     -0.514134   108A     -0.508364
     109A     -0.506149   110A     -0.501633   111A     -0.498610
     112A     -0.493403   113A     -0.484346   114A     -0.480181
     115A     -0.455471   116A     -0.451860   117A     -0.443265
     118A     -0.431774   119A     -0.427210   120A     -0.425312
     121A     -0.414263   122A     -0.410804   123A     -0.400658
     124A     -0.381535   125A     -0.374025   126A     -0.346681
     127A     -0.343980   128A     -0.340267   129A     -0.316599
     130A     -0.313666   131A     -0.290065

  @DF-RHF Final Energy: -1572.34346663699989

   => Energetics <=

    Nuclear Repulsion Energy =           3732.6078292879738001
    One-Electron Energy =               -9563.4535836127161019
    Two-Electron Energy =                4258.5022876877428644
    Total Energy =                      -1572.3434666369994375

  Dipole Moment: [D]
     X:     1.2613      Y:     7.1607      Z:    -0.8220     Total:     7.3173

  Basis Set: (6-311++G** AUX)
    Blend: AUG-CC-PVTZ-RI
	 Reference Energy          =   -1572.3434666369998922 [Eh]
	 Singles Energy            =      -0.0000000000000000 [Eh]
	 Same-Spin Energy          =      -1.4705309661880386 [Eh]
	 Opposite-Spin Energy      =      -4.0474008091221556 [Eh]
	 Correlation Energy        =      -5.5179317753101937 [Eh]
	 Total Energy              =   -1577.8613984123101091 [Eh]

	 ================> DF-SCS-MP2 Energies <==================
	-----------------------------------------------------------
	 SCS Same-Spin Scale       =       0.3333333333333333 [-]
	 SCS Opposite-Spin Scale   =       1.2000000000000000 [-]
	 SCS Same-Spin Energy      =      -0.4901769887293462 [Eh]
	 SCS Opposite-Spin Energy  =      -4.8568809709465866 [Eh]
	 SCS Correlation Energy    =      -5.3470579596759329 [Eh]
	 SCS Total Energy          =   -1577.6905245966759139 [Eh]
	-----------------------------------------------------------

*** Psi4 exiting successfully. Buy a developer a beer!
