                               Psi4 1.3.2 release

  ==> Input File <==

--------------------------------------------------------------------------
molecule {
0 1
 C    0.141741    4.310238   -2.006106
 C    1.346835    4.261745   -1.291983
 C    1.993912    3.026994   -1.088134
 C    1.353254    1.893287   -1.649836
 N    0.199056    1.918944   -2.328970
 C   -0.388282    3.112890   -2.500104
 C    3.264713    2.870403   -0.290683
 C    3.974462    3.895913    0.353986
 C    5.086452    3.486221    1.101278
 N    5.483493    2.222452    1.234725
 C    4.740275    1.307481    0.580306
 N    3.674077    1.595577   -0.167700
 N    5.125619   -0.012295    0.710067
 C    4.404908   -1.243246    0.496787
 C    5.122088   -2.469226    0.355760
 C    4.364538   -3.632209    0.134060
 C    2.968959   -3.646823    0.022407
 C    2.281877   -2.436985    0.163531
 C    3.005982   -1.262484    0.422389
 N    0.869827   -2.250731    0.037657
 C   -0.127246   -3.100460   -0.379081
 C   -1.487120   -2.485547   -0.649077
 C   -1.645278   -1.200760   -1.196817
 C   -2.920776   -0.670031   -1.396472
 C   -4.078890   -1.399857   -1.069277
 C   -3.905733   -2.692638   -0.537771
 C   -2.633655   -3.236633   -0.344246
 C   -5.469828   -0.783596   -1.227588
 N   -5.987689    0.082589   -0.152207
 C   -5.443431    1.451767   -0.010218
 C   -4.271786    1.575938    0.997605
 N   -4.573155    1.034786    2.343742
 C   -5.316504    1.911991    3.255798
 C   -5.079248   -0.352883    2.204378
 C   -6.234972   -0.513090    1.181559
 O    0.045561   -4.301483   -0.513366
 C    6.636778   -2.562778    0.420068
 H   -0.377824    5.249640   -2.170063
 H    1.750343    5.190789   -0.896723
 H    1.804702    0.910282   -1.543035
 H   -1.323162    3.106254   -3.058258
 H    3.696681    4.942146    0.315927
 H    5.686860    4.221294    1.636951
 H    6.112836   -0.070609    0.911150
 H    4.878138   -4.584935    0.011539
 H    2.425499   -4.560431   -0.185755
 H    2.479463   -0.324851    0.523074
 H    0.561473   -1.306226    0.221073
 H   -0.767896   -0.617796   -1.469962
 H   -3.005382    0.334990   -1.810011
 H   -4.774929   -3.288580   -0.260132
 H   -2.507860   -4.234799    0.067329
 H   -5.487508   -0.191234   -2.154055
 H   -6.198775   -1.596950   -1.355932
 H   -5.212617    1.868189   -0.961456
 H   -6.605295    2.338923    0.592401
 H   -3.964866    3.046971    1.133799
 H   -3.338711    1.062517    0.614995
 H   -6.330870    2.096329    2.884804
 H   -4.798592    2.871733    3.363862
 H   -5.382941    1.453724    4.249327
 H   -5.365467   -0.748991    3.211500
 H   -3.940956   -1.174208    1.715581
 H   -7.454561    0.260710    1.809288
 H   -6.550649   -1.582779    1.080111
 H    7.019243   -2.228325    1.394922
 H    7.110025   -1.940598   -0.352493
 H    7.009312   -3.585707    0.271066
}
memory 20GB
set_num_threads(6)
psi4_io.set_default_path("/scratch/bdw2292")
set freeze_core True
E, wfn = energy('mp2/6-311++G**',return_wfn=True)
oeprop(wfn,"WIBERG_LOWDIN_INDICES")
clean()
--------------------------------------------------------------------------

    Molecular point group: c1

    Geometry (in Angstrom), charge = 0, multiplicity = 1:

       Center              X                  Y                   Z               Mass
    ------------   -----------------  -----------------  -----------------  -----------------
         C            0.030404781601     4.319462699513    -1.961046452450    12.000000000000
         C            1.235498781601     4.270969699513    -1.246923452450    12.000000000000
         C            1.882575781601     3.036218699513    -1.043074452450    12.000000000000
         C            1.241917781601     1.902511699513    -1.604776452450    12.000000000000
         N            0.087719781601     1.928168699513    -2.283910452450    14.003074004430
         C           -0.499618218399     3.122114699513    -2.455044452450    12.000000000000
         C            3.153376781601     2.879627699513    -0.245623452450    12.000000000000
         C            3.863125781601     3.905137699513     0.399045547550    12.000000000000
         C            4.975115781601     3.495445699513     1.146337547550    12.000000000000
         N            5.372156781601     2.231676699513     1.279784547550    14.003074004430
         C            4.628938781601     1.316705699513     0.625365547550    12.000000000000
         N            3.562740781601     1.604801699513    -0.122640452450    14.003074004430
         N            5.014282781601    -0.003070300487     0.755126547550    14.003074004430
         C            4.293571781601    -1.234021300487     0.541846547550    12.000000000000
         C            5.010751781601    -2.460001300487     0.400819547550    12.000000000000
         C            4.253201781601    -3.622984300487     0.179119547550    12.000000000000
         C            2.857622781601    -3.637598300487     0.067466547550    12.000000000000
         C            2.170540781601    -2.427760300487     0.208590547550    12.000000000000
         C            2.894645781601    -1.253259300487     0.467448547550    12.000000000000
         N            0.758490781601    -2.241506300487     0.082716547550    14.003074004430
         C           -0.238582218399    -3.091235300487    -0.334021452450    12.000000000000
         C           -1.598456218399    -2.476322300487    -0.604017452450    12.000000000000
         C           -1.756614218399    -1.191535300487    -1.151757452450    12.000000000000
         C           -3.032112218399    -0.660806300487    -1.351412452450    12.000000000000
         C           -4.190226218399    -1.390632300487    -1.024217452450    12.000000000000
         C           -4.017069218399    -2.683413300487    -0.492711452450    12.000000000000
         C           -2.744991218399    -3.227408300487    -0.299186452450    12.000000000000
         C           -5.581164218399    -0.774371300487    -1.182528452450    12.000000000000
         N           -6.099025218399     0.091813699513    -0.107147452450    14.003074004430
         C           -5.554767218399     1.460991699513     0.034841547550    12.000000000000
         C           -4.383122218399     1.585162699513     1.042664547550    12.000000000000
         N           -4.684491218399     1.044010699513     2.388801547550    14.003074004430
         C           -5.427840218399     1.921215699513     3.300857547550    12.000000000000
         C           -5.190584218399    -0.343658300487     2.249437547550    12.000000000000
         C           -6.346308218399    -0.503865300487     1.226618547550    12.000000000000
         O           -0.065775218399    -4.292258300487    -0.468306452450    15.994914619570
         C            6.525441781601    -2.553553300487     0.465127547550    12.000000000000
         H           -0.489160218399     5.258864699513    -2.125003452450     1.007825032230
         H            1.639006781601     5.200013699513    -0.851663452450     1.007825032230
         H            1.693365781601     0.919506699513    -1.497975452450     1.007825032230
         H           -1.434498218399     3.115478699513    -3.013198452450     1.007825032230
         H            3.585344781601     4.951370699513     0.360986547550     1.007825032230
         H            5.575523781601     4.230518699513     1.682010547550     1.007825032230
         H            6.001499781601    -0.061384300487     0.956209547550     1.007825032230
         H            4.766801781601    -4.575710300487     0.056598547550     1.007825032230
         H            2.314162781601    -4.551206300487    -0.140695452450     1.007825032230
         H            2.368126781601    -0.315626300487     0.568133547550     1.007825032230
         H            0.450136781601    -1.297001300487     0.266132547550     1.007825032230
         H           -0.879232218399    -0.608571300487    -1.424902452450     1.007825032230
         H           -3.116718218399     0.344214699513    -1.764951452450     1.007825032230
         H           -4.886265218399    -3.279355300487    -0.215072452450     1.007825032230
         H           -2.619196218399    -4.225574300487     0.112388547550     1.007825032230
         H           -5.598844218399    -0.182009300487    -2.108995452450     1.007825032230
         H           -6.310111218399    -1.587725300487    -1.310872452450     1.007825032230
         H           -5.323953218399     1.877413699513    -0.916396452450     1.007825032230
         H           -6.716631218399     2.348147699513     0.637460547550     1.007825032230
         H           -4.076202218399     3.056195699513     1.178858547550     1.007825032230
         H           -3.450047218399     1.071741699513     0.660054547550     1.007825032230
         H           -6.442206218399     2.105553699513     2.929863547550     1.007825032230
         H           -4.909928218399     2.880957699513     3.408921547550     1.007825032230
         H           -5.494277218399     1.462948699513     4.294386547550     1.007825032230
         H           -5.476803218399    -0.739766300487     3.256559547550     1.007825032230
         H           -4.052292218399    -1.164983300487     1.760640547550     1.007825032230
         H           -7.565897218399     0.269934699513     1.854347547550     1.007825032230
         H           -6.661985218399    -1.573554300487     1.125170547550     1.007825032230
         H            6.907906781601    -2.219100300487     1.439981547550     1.007825032230
         H            6.998688781601    -1.931373300487    -0.307433452450     1.007825032230
         H            6.897975781601    -3.576482300487     0.316125547550     1.007825032230

  Charge       = 0
  Multiplicity = 1
  Basis Set: 6-311++G**
    Blend: 6-311++G**
  Basis Set: (6-311++G** AUX)
    Blend: AUG-CC-PVTZ-JKFIT

    Orbital Energies [Eh]
    ---------------------

    Doubly Occupied:

       1A    -20.522711     2A    -15.602553     3A    -15.600356
       4A    -15.586077     5A    -15.575166     6A    -15.574826
       7A    -15.568529     8A    -15.556378     9A    -11.372934
      10A    -11.365140    11A    -11.333349    12A    -11.314319
      13A    -11.313188    14A    -11.306783    15A    -11.304055
      16A    -11.301863    17A    -11.301580    18A    -11.300693
      19A    -11.298534    20A    -11.293796    21A    -11.288717
      22A    -11.282793    23A    -11.279402    24A    -11.264986
      25A    -11.260192    26A    -11.259282    27A    -11.255515
      28A    -11.254134    29A    -11.252567    30A    -11.249068
      31A    -11.248571    32A    -11.246696    33A    -11.245182
      34A    -11.240303    35A    -11.235618    36A    -11.232858
      37A    -11.224936    38A     -1.387876    39A     -1.345726
      40A     -1.277486    41A     -1.252650    42A     -1.249031
      43A     -1.241907    44A     -1.210615    45A     -1.202583
      46A     -1.164510    47A     -1.140021    48A     -1.114907
      49A     -1.074999    50A     -1.061703    51A     -1.048025
      52A     -1.038708    53A     -1.026746    54A     -1.008131
      55A     -1.004162    56A     -0.980698    57A     -0.947730
      58A     -0.929894    59A     -0.926292    60A     -0.900953
      61A     -0.871605    62A     -0.868461    63A     -0.857590
      64A     -0.850317    65A     -0.839854    66A     -0.837836
      67A     -0.826265    68A     -0.808457    69A     -0.779245
      70A     -0.754475    71A     -0.739622    72A     -0.731804
      73A     -0.721138    74A     -0.715980    75A     -0.702258
      76A     -0.683069    77A     -0.681312    78A     -0.668882
      79A     -0.661743    80A     -0.656776    81A     -0.653283
      82A     -0.650103    83A     -0.638962    84A     -0.633390
      85A     -0.624036    86A     -0.615887    87A     -0.613577
      88A     -0.612110    89A     -0.608271    90A     -0.603807
      91A     -0.602651    92A     -0.598610    93A     -0.597414
      94A     -0.592019    95A     -0.588715    96A     -0.582813
      97A     -0.580178    98A     -0.577548    99A     -0.568227
     100A     -0.560078   101A     -0.548134   102A     -0.545025
     103A     -0.543489   104A     -0.533230   105A     -0.528724
     106A     -0.524391   107A     -0.514056   108A     -0.510279
     109A     -0.509138   110A     -0.506779   111A     -0.498519
     112A     -0.495615   113A     -0.487465   114A     -0.480214
     115A     -0.457666   116A     -0.451752   117A     -0.441978
     118A     -0.429831   119A     -0.426451   120A     -0.421311
     121A     -0.414661   122A     -0.399901   123A     -0.397619
     124A     -0.382209   125A     -0.374550   126A     -0.348531
     127A     -0.345478   128A     -0.345057   129A     -0.315384
     130A     -0.312672   131A     -0.290720

  @DF-RHF Final Energy: -1572.33171962382585

   => Energetics <=

    Nuclear Repulsion Energy =           3774.8008973760729532
    One-Electron Energy =               -9647.4888633070659125
    Two-Electron Energy =                4300.3562463071666571
    Total Energy =                      -1572.3317196238258475

  Dipole Moment: [D]
     X:     0.7904      Y:     6.1257      Z:    -0.0039     Total:     6.1765

  Basis Set: (6-311++G** AUX)
    Blend: AUG-CC-PVTZ-RI
	 Reference Energy          =   -1572.3317196238258475 [Eh]
	 Singles Energy            =      -0.0000000000000000 [Eh]
	 Same-Spin Energy          =      -1.4712438230303140 [Eh]
	 Opposite-Spin Energy      =      -4.0478940156543928 [Eh]
	 Correlation Energy        =      -5.5191378386847063 [Eh]
	 Total Energy              =   -1577.8508574625104757 [Eh]

	 ================> DF-SCS-MP2 Energies <==================
	-----------------------------------------------------------
	 SCS Same-Spin Scale       =       0.3333333333333333 [-]
	 SCS Opposite-Spin Scale   =       1.2000000000000000 [-]
	 SCS Same-Spin Energy      =      -0.4904146076767713 [Eh]
	 SCS Opposite-Spin Energy  =      -4.8574728187852712 [Eh]
	 SCS Correlation Energy    =      -5.3478874264620426 [Eh]
	 SCS Total Energy          =   -1577.6796070502878138 [Eh]
	-----------------------------------------------------------

*** Psi4 exiting successfully. Buy a developer a beer!
