                               Psi4 1.3.2 release

  ==> Input File <==

--------------------------------------------------------------------------
molecule {
0 1
 C    0.284304    4.662777   -0.933322
 C    1.598535    4.518797   -0.467969
 C    2.164949    3.234495   -0.351234
 C    1.340920    2.157053   -0.760035
 N    0.084166    2.273639   -1.207870
 C   -0.429993    3.511143   -1.283793
 C    3.557649    2.971831    0.164512
 C    4.516811    3.954170    0.460579
 C    5.755192    3.480852    0.911972
 N    6.052885    2.193421    1.077719
 C    5.068400    1.320546    0.783106
 N    3.860128    1.673121    0.342363
 N    5.376180   -0.015806    0.968215
 C    4.671721   -1.236726    0.662357
 C    5.399747   -2.458422    0.535008
 C    4.668149   -3.613053    0.209898
 C    3.284196   -3.629236    0.000502
 C    2.576673   -2.431660    0.149854
 C    3.281508   -1.265969    0.489619
 N    1.165300   -2.264670   -0.036617
 C    0.197777   -3.122580   -0.508394
 C   -1.182922   -2.550516   -0.777361
 C   -1.423787   -1.213655   -1.137961
 C   -2.728791   -0.755605   -1.334550
 C   -3.844381   -1.602717   -1.187721
 C   -3.581168   -2.953485   -0.879958
 C   -2.280216   -3.422245   -0.679865
 C   -5.283126   -1.108105   -1.387824
 N   -5.793556    0.191035   -0.901940
 C   -5.056646    0.964726    0.124886
 C   -5.463742    0.575203    1.569590
 N   -6.920495    0.645425    1.844702
 C   -7.452114    1.966433    2.200390
 C   -7.652944   -0.096813    0.789962
 C   -7.249165    0.292955   -0.654789
 O    0.415872   -4.310264   -0.694372
 C    6.906191   -2.552882    0.710306
 H   -0.176254    5.642291   -1.022308
 H    2.150718    5.411461   -0.184359
 H    1.721464    1.140535   -0.746757
 H   -1.453942    3.570470   -1.649827
 H    4.360705    5.019524    0.343133
 H    6.572889    4.157732    1.158577
 H    6.338943   -0.100024    1.257916
 H    5.195661   -4.559233    0.096797
 H    2.761442   -4.537808   -0.270538
 H    2.738388   -0.345812    0.627376
 H    0.831603   -1.333239    0.166188
 H   -0.590665   -0.527230   -1.272485
 H   -2.865759    0.279597   -1.644489
 H   -4.405355   -3.659963   -0.783671
 H   -2.098410   -4.466510   -0.437282
 H   -5.465561   -1.056036   -2.472189
 H   -5.913555   -1.909738   -0.976765
 H   -4.162826    0.908740    0.000819
 H   -5.393203    2.384530   -0.063384
 H   -4.804639    1.386038    2.476239
 H   -5.030941   -0.845809    1.818894
 H   -7.365355    2.663116    1.358859
 H   -6.906163    2.376910    3.057668
 H   -8.507835    1.885477    2.484288
 H   -8.859121    0.045820    0.956233
 H   -7.344509   -1.531272    0.989779
 H   -7.645069    1.648488   -0.893832
 H   -7.919502   -0.472361   -1.549888
 H    7.234732   -2.263175    1.718841
 H    7.425775   -1.901822    0.001585
 H    7.287662   -3.563253    0.541141
}
memory 20GB
set_num_threads(6)
psi4_io.set_default_path("/scratch/bdw2292")
set freeze_core True
E, wfn = energy('mp2/6-311++G**',return_wfn=True)
oeprop(wfn,"WIBERG_LOWDIN_INDICES")
clean()
--------------------------------------------------------------------------

    Molecular point group: c1

    Geometry (in Angstrom), charge = 0, multiplicity = 1:

       Center              X                  Y                   Z               Mass
    ------------   -----------------  -----------------  -----------------  -----------------
         C            0.208657661990     4.667893468562    -0.917613301124    12.000000000000
         C            1.522888661990     4.523913468562    -0.452260301124    12.000000000000
         C            2.089302661990     3.239611468562    -0.335525301124    12.000000000000
         C            1.265273661990     2.162169468562    -0.744326301124    12.000000000000
         N            0.008519661990     2.278755468562    -1.192161301124    14.003074004430
         C           -0.505639338010     3.516259468562    -1.268084301124    12.000000000000
         C            3.482002661990     2.976947468562     0.180220698876    12.000000000000
         C            4.441164661990     3.959286468562     0.476287698876    12.000000000000
         C            5.679545661990     3.485968468562     0.927680698876    12.000000000000
         N            5.977238661990     2.198537468562     1.093427698876    14.003074004430
         C            4.992753661990     1.325662468562     0.798814698876    12.000000000000
         N            3.784481661990     1.678237468562     0.358071698876    14.003074004430
         N            5.300533661990    -0.010689531438     0.983923698876    14.003074004430
         C            4.596074661990    -1.231609531438     0.678065698876    12.000000000000
         C            5.324100661990    -2.453305531438     0.550716698876    12.000000000000
         C            4.592502661990    -3.607936531438     0.225606698876    12.000000000000
         C            3.208549661990    -3.624119531438     0.016210698876    12.000000000000
         C            2.501026661990    -2.426543531438     0.165562698876    12.000000000000
         C            3.205861661990    -1.260852531438     0.505327698876    12.000000000000
         N            1.089653661990    -2.259553531438    -0.020908301124    14.003074004430
         C            0.122130661990    -3.117463531438    -0.492685301124    12.000000000000
         C           -1.258568338010    -2.545399531438    -0.761652301124    12.000000000000
         C           -1.499433338010    -1.208538531438    -1.122252301124    12.000000000000
         C           -2.804437338010    -0.750488531438    -1.318841301124    12.000000000000
         C           -3.920027338010    -1.597600531438    -1.172012301124    12.000000000000
         C           -3.656814338010    -2.948368531438    -0.864249301124    12.000000000000
         C           -2.355862338010    -3.417128531438    -0.664156301124    12.000000000000
         C           -5.358772338010    -1.102988531438    -1.372115301124    12.000000000000
         N           -5.869202338010     0.196151468562    -0.886231301124    14.003074004430
         C           -5.132292338010     0.969842468562     0.140594698876    12.000000000000
         C           -5.539388338010     0.580319468562     1.585298698876    12.000000000000
         N           -6.996141338010     0.650541468562     1.860410698876    14.003074004430
         C           -7.527760338010     1.971549468562     2.216098698876    12.000000000000
         C           -7.728590338010    -0.091696531438     0.805670698876    12.000000000000
         C           -7.324811338010     0.298071468562    -0.639080301124    12.000000000000
         O            0.340225661990    -4.305147531438    -0.678663301124    15.994914619570
         C            6.830544661990    -2.547765531438     0.726014698876    12.000000000000
         H           -0.251900338010     5.647407468562    -1.006599301124     1.007825032230
         H            2.075071661990     5.416577468562    -0.168650301124     1.007825032230
         H            1.645817661990     1.145651468562    -0.731048301124     1.007825032230
         H           -1.529588338010     3.575586468562    -1.634118301124     1.007825032230
         H            4.285058661990     5.024640468562     0.358841698876     1.007825032230
         H            6.497242661990     4.162848468562     1.174285698876     1.007825032230
         H            6.263296661990    -0.094907531438     1.273624698876     1.007825032230
         H            5.120014661990    -4.554116531438     0.112505698876     1.007825032230
         H            2.685795661990    -4.532691531438    -0.254829301124     1.007825032230
         H            2.662741661990    -0.340695531438     0.643084698876     1.007825032230
         H            0.755956661990    -1.328122531438     0.181896698876     1.007825032230
         H           -0.666311338010    -0.522113531438    -1.256776301124     1.007825032230
         H           -2.941405338010     0.284713468562    -1.628780301124     1.007825032230
         H           -4.481001338010    -3.654846531438    -0.767962301124     1.007825032230
         H           -2.174056338010    -4.461393531438    -0.421573301124     1.007825032230
         H           -5.541207338010    -1.050919531438    -2.456480301124     1.007825032230
         H           -5.989201338010    -1.904621531438    -0.961056301124     1.007825032230
         H           -4.238472338010     0.913856468562     0.016527698876     1.007825032230
         H           -5.468849338010     2.389646468562    -0.047675301124     1.007825032230
         H           -4.880285338010     1.391154468562     2.491947698876     1.007825032230
         H           -5.106587338010    -0.840692531438     1.834602698876     1.007825032230
         H           -7.441001338010     2.668232468562     1.374567698876     1.007825032230
         H           -6.981809338010     2.382026468562     3.073376698876     1.007825032230
         H           -8.583481338010     1.890593468562     2.499996698876     1.007825032230
         H           -8.934767338010     0.050936468562     0.971941698876     1.007825032230
         H           -7.420155338010    -1.526155531438     1.005487698876     1.007825032230
         H           -7.720715338010     1.653604468562    -0.878123301124     1.007825032230
         H           -7.995148338010    -0.467244531438    -1.534179301124     1.007825032230
         H            7.159085661990    -2.258058531438     1.734549698876     1.007825032230
         H            7.350128661990    -1.896705531438     0.017293698876     1.007825032230
         H            7.212015661990    -3.558136531438     0.556849698876     1.007825032230

  Charge       = 0
  Multiplicity = 1
  Basis Set: 6-311++G**
    Blend: 6-311++G**
  Basis Set: (6-311++G** AUX)
    Blend: AUG-CC-PVTZ-JKFIT

    Orbital Energies [Eh]
    ---------------------

    Doubly Occupied:

       1A    -20.520231     2A    -15.603408     3A    -15.601658
       4A    -15.586922     5A    -15.573371     6A    -15.567994
       7A    -15.565432     8A    -15.565109     9A    -11.374030
      10A    -11.364229    11A    -11.334252    12A    -11.326527
      13A    -11.326446    14A    -11.316101    15A    -11.313799
      16A    -11.301103    17A    -11.301089    18A    -11.300248
      19A    -11.292936    20A    -11.289553    21A    -11.282860
      22A    -11.280241    23A    -11.275208    24A    -11.266639
      25A    -11.265748    26A    -11.256082    27A    -11.254738
      28A    -11.253359    29A    -11.252456    30A    -11.249211
      31A    -11.247005    32A    -11.246235    33A    -11.244742
      34A    -11.239330    35A    -11.233776    36A    -11.231500
      37A    -11.224684    38A     -1.385675    39A     -1.345025
      40A     -1.278352    41A     -1.250317    42A     -1.248097
      43A     -1.241225    44A     -1.209401    45A     -1.202557
      46A     -1.161573    47A     -1.139549    48A     -1.115880
      49A     -1.075097    50A     -1.060010    51A     -1.048198
      52A     -1.037898    53A     -1.022737    54A     -1.008101
      55A     -1.007494    56A     -0.976335    57A     -0.947423
      58A     -0.929738    59A     -0.926379    60A     -0.900722
      61A     -0.873934    62A     -0.872458    63A     -0.858067
      64A     -0.847273    65A     -0.839272    66A     -0.828334
      67A     -0.823258    68A     -0.804100    69A     -0.777812
      70A     -0.754374    71A     -0.739168    72A     -0.730821
      73A     -0.721784    74A     -0.705981    75A     -0.698051
      76A     -0.682328    77A     -0.678181    78A     -0.666530
      79A     -0.661383    80A     -0.656266    81A     -0.651783
      82A     -0.637351    83A     -0.636742    84A     -0.629607
      85A     -0.622683    86A     -0.618535    87A     -0.614223
      88A     -0.610748    89A     -0.606746    90A     -0.603972
      91A     -0.602623    92A     -0.596622    93A     -0.595288
      94A     -0.593197    95A     -0.590088    96A     -0.582555
      97A     -0.580112    98A     -0.572356    99A     -0.561456
     100A     -0.560568   101A     -0.548889   102A     -0.547190
     103A     -0.544333   104A     -0.523900   105A     -0.519783
     106A     -0.515958   107A     -0.513276   108A     -0.508619
     109A     -0.506194   110A     -0.500479   111A     -0.496373
     112A     -0.493113   113A     -0.484633   114A     -0.478881
     115A     -0.464137   116A     -0.451581   117A     -0.442825
     118A     -0.430857   119A     -0.427358   120A     -0.425494
     121A     -0.414027   122A     -0.403126   123A     -0.400216
     124A     -0.384560   125A     -0.373255   126A     -0.346021
     127A     -0.343871   128A     -0.338143   129A     -0.319366
     130A     -0.314116   131A     -0.290329

  @DF-RHF Final Energy: -1572.27058382680889

   => Energetics <=

    Nuclear Repulsion Energy =           3675.6650228093108126
    One-Electron Energy =               -9449.3040990994813910
    Two-Electron Energy =                4201.3684924633616902
    Total Energy =                      -1572.2705838268084335

  Dipole Moment: [D]
     X:     0.3188      Y:     7.2839      Z:     0.4281     Total:     7.3034

  Basis Set: (6-311++G** AUX)
    Blend: AUG-CC-PVTZ-RI
	 Reference Energy          =   -1572.2705838268088883 [Eh]
	 Singles Energy            =      -0.0000000000000000 [Eh]
	 Same-Spin Energy          =      -1.4682753886205093 [Eh]
	 Opposite-Spin Energy      =      -4.0459526316389933 [Eh]
	 Correlation Energy        =      -5.5142280202595026 [Eh]
	 Total Energy              =   -1577.7848118470683403 [Eh]

	 ================> DF-SCS-MP2 Energies <==================
	-----------------------------------------------------------
	 SCS Same-Spin Scale       =       0.3333333333333333 [-]
	 SCS Opposite-Spin Scale   =       1.2000000000000000 [-]
	 SCS Same-Spin Energy      =      -0.4894251295401698 [Eh]
	 SCS Opposite-Spin Energy  =      -4.8551431579667916 [Eh]
	 SCS Correlation Energy    =      -5.3445682875069611 [Eh]
	 SCS Total Energy          =   -1577.6151521143158334 [Eh]
	-----------------------------------------------------------

*** Psi4 exiting successfully. Buy a developer a beer!
