 Gaussian 09, Revision A.02,
 Gaussian 09:  EM64L-G09RevA.02 11-Jun-2009

 --------------------------------------------------
 #P opt=(,maxcycle=400) wB97XD/6-31G* MaxDisk=100GB
 --------------------------------------------------

 --------------------------------------------------------------
 MOLECULE0 Rotatable Bond Optimization on node37.bme.utexas.edu
 --------------------------------------------------------------
 Symbolic Z-matrix:
 Charge =  0 Multiplicity = 1

 SCF Done:  E(RwB97XD) =  -1581.51767991     A.U. after   16 cycles
 SCF Done:  E(RwB97XD) =  -1581.57792985     A.U. after   13 cycles
 SCF Done:  E(RwB97XD) =  -1581.67664322     A.U. after   14 cycles
 SCF Done:  E(RwB97XD) =  -1581.72570591     A.U. after   14 cycles
 SCF Done:  E(RwB97XD) =  -1581.73572291     A.U. after   17 cycles
 SCF Done:  E(RwB97XD) =  -1581.74763213     A.U. after   17 cycles
 SCF Done:  E(RwB97XD) =  -1581.75183256     A.U. after   14 cycles
 SCF Done:  E(RwB97XD) =  -1581.75454904     A.U. after   14 cycles
 SCF Done:  E(RwB97XD) =  -1581.75454722     A.U. after   16 cycles
 SCF Done:  E(RwB97XD) =  -1581.75575071     A.U. after   14 cycles
 SCF Done:  E(RwB97XD) =  -1581.75837150     A.U. after   12 cycles
 SCF Done:  E(RwB97XD) =  -1581.75840773     A.U. after   13 cycles
 SCF Done:  E(RwB97XD) =  -1581.75844417     A.U. after   12 cycles
 SCF Done:  E(RwB97XD) =  -1581.75846278     A.U. after   12 cycles
 SCF Done:  E(RwB97XD) =  -1581.75846882     A.U. after   10 cycles
 SCF Done:  E(RwB97XD) =  -1581.75847051     A.U. after   10 cycles
 SCF Done:  E(RwB97XD) =  -1581.75847150     A.U. after    9 cycles
 SCF Done:  E(RwB97XD) =  -1581.75847176     A.U. after    7 cycles
 SCF Done:  E(RwB97XD) =  -1581.75847183     A.U. after    8 cycles
 SCF Done:  E(RwB97XD) =  -1581.75847188     A.U. after    7 cycles
 Optimization completed.
    -- Stationary point found.

                         Standard orientation:
 ---------------------------------------------------------------------
 Center     Atomic      Atomic             Coordinates (Angstroms)
 Number     Number       Type             X           Y           Z
 ---------------------------------------------------------------------
      1          6           0        3.535607   -4.928816   -0.675225
      2          6           0        4.453684   -3.909153   -0.466680
      3          6           0        4.004640   -2.678447    0.014222
      4          6           0        2.632904   -2.536230    0.262570
      5          7           0        1.743619   -3.511277    0.069227
      6          6           0        2.196776   -4.678407   -0.392741
      7          6           0        4.938583   -1.551043    0.249188
      8          6           0        6.276315   -1.758088    0.584068
      9          6           0        7.056895   -0.619263    0.748526
     10          7           0        6.586444    0.612482    0.614548
     11          6           0        5.274830    0.702976    0.313614
     12          7           0        4.436770   -0.316322    0.121503
     13          7           0        4.840384    1.997566    0.191680
     14          6           0        3.579112    2.549663   -0.070236
     15          6           0        3.520766    3.944053   -0.279049
     16          6           0        2.276742    4.512561   -0.529055
     17          6           0        1.113221    3.755090   -0.571025
     18          6           0        1.190806    2.380208   -0.359839
     19          6           0        2.421319    1.773834   -0.116173
     20          7           0        0.004922    1.621061   -0.445633
     21          6           0       -0.255620    0.422601    0.172696
     22          6           0       -1.597837   -0.171729   -0.137692
     23          6           0       -2.297537    0.084012   -1.319404
     24          6           0       -3.530131   -0.516796   -1.546021
     25          6           0       -4.097480   -1.371745   -0.599927
     26          6           0       -3.370951   -1.652161    0.559925
     27          6           0       -2.134312   -1.065757    0.789613
     28          6           0       -5.479732   -1.970086   -0.816386
     29          7           0       -6.632022   -1.203029   -0.373774
     30          6           0       -6.983756   -0.009701   -1.134173
     31          6           0       -6.379171    1.289008   -0.573242
     32          7           0       -6.637053    1.471444    0.852463
     33          6           0       -8.000731    1.869298    1.154561
     34          6           0       -6.188102    0.293327    1.590713
     35          6           0       -6.798390   -1.016019    1.063003
     36          8           0        0.524643   -0.130444    0.930265
     37          6           0        4.762535    4.798104   -0.238418
     38          1           0        3.847334   -5.894712   -1.058856
     39          1           0        5.503736   -4.061829   -0.699798
     40          1           0        2.235206   -1.598622    0.641974
     41          1           0        1.447916   -5.452768   -0.547665
     42          1           0        6.690651   -2.747285    0.733030
     43          1           0        8.111809   -0.702430    1.002891
     44          1           0        5.597216    2.649159    0.334061
     45          1           0        2.214428    5.585085   -0.693609
     46          1           0        0.155153    4.233354   -0.756840
     47          1           0        2.486301    0.710907    0.038497
     48          1           0       -0.784456    2.094099   -0.858873
     49          1           0       -1.867673    0.716329   -2.091933
     50          1           0       -4.057545   -0.321996   -2.477104
     51          1           0       -3.780470   -2.343293    1.293066
     52          1           0       -1.560005   -1.296177    1.680610
     53          1           0       -5.616364   -2.168425   -1.886681
     54          1           0       -5.523489   -2.942037   -0.309211
     55          1           0       -6.680131   -0.151930   -2.177705
     56          1           0       -8.080573    0.078923   -1.135541
     57          1           0       -6.778026    2.153902   -1.117383
     58          1           0       -5.292014    1.281094   -0.714353
     59          1           0       -8.781936    1.140770    0.875387
     60          1           0       -8.221957    2.808175    0.635110
     61          1           0       -8.089502    2.053388    2.230713
     62          1           0       -6.436199    0.425206    2.650720
     63          1           0       -5.095547    0.247529    1.510826
     64          1           0       -7.876432   -1.025386    1.282622
     65          1           0       -6.363546   -1.876133    1.584544
     66          1           0        5.505475    4.476961   -0.979790
     67          1           0        5.246686    4.778530    0.747461
     68          1           0        4.519475    5.841947   -0.452875
 ---------------------------------------------------------------------

 The electronic state is 1-A.
 Alpha  occ. eigenvalues --  -19.23743 -14.48748 -14.48323 -14.44929 -14.44658
 Alpha  occ. eigenvalues --  -14.43967 -14.43729 -14.43202 -10.40660 -10.40555
 Alpha  occ. eigenvalues --  -10.36188 -10.35107 -10.34285 -10.34055 -10.33063
 Alpha  occ. eigenvalues --  -10.32592 -10.32298 -10.32086 -10.31491 -10.31444
 Alpha  occ. eigenvalues --  -10.31425 -10.31348 -10.31317 -10.31132 -10.30810
 Alpha  occ. eigenvalues --  -10.30759 -10.30754 -10.30682 -10.30655 -10.30513
 Alpha  occ. eigenvalues --  -10.30506 -10.30424 -10.30309 -10.29948 -10.29827
 Alpha  occ. eigenvalues --  -10.29324 -10.28054  -1.13966  -1.11129  -1.04134
 Alpha  occ. eigenvalues --   -1.03956  -1.03758  -1.03254  -0.99672  -0.99399
 Alpha  occ. eigenvalues --   -0.96453  -0.94510  -0.91382  -0.88618  -0.87853
 Alpha  occ. eigenvalues --   -0.86331  -0.85617  -0.85548  -0.84939  -0.83400
 Alpha  occ. eigenvalues --   -0.82023  -0.79470  -0.77860  -0.76573  -0.75781
 Alpha  occ. eigenvalues --   -0.73377  -0.72920  -0.72072  -0.71217  -0.70787
 Alpha  occ. eigenvalues --   -0.70099  -0.69281  -0.68001  -0.66313  -0.64742
 Alpha  occ. eigenvalues --   -0.63787  -0.62924  -0.61818  -0.60386  -0.59339
 Alpha  occ. eigenvalues --   -0.58215  -0.57632  -0.56845  -0.55855  -0.55673
 Alpha  occ. eigenvalues --   -0.55439  -0.55064  -0.54632  -0.54085  -0.53952
 Alpha  occ. eigenvalues --   -0.53810  -0.53475  -0.52793  -0.52590  -0.52367
 Alpha  occ. eigenvalues --   -0.51331  -0.51160  -0.50942  -0.50518  -0.50266
 Alpha  occ. eigenvalues --   -0.49768  -0.49291  -0.48691  -0.48352  -0.48111
 Alpha  occ. eigenvalues --   -0.47480  -0.46848  -0.46500  -0.46360  -0.45613
 Alpha  occ. eigenvalues --   -0.45216  -0.44924  -0.44110  -0.44103  -0.43820
 Alpha  occ. eigenvalues --   -0.43395  -0.42637  -0.42503  -0.41638  -0.41069
 Alpha  occ. eigenvalues --   -0.40977  -0.40311  -0.39057  -0.37461  -0.35873
 Alpha  occ. eigenvalues --   -0.34566  -0.33793  -0.33485  -0.33306  -0.32339
 Alpha  occ. eigenvalues --   -0.32166  -0.31782  -0.30949  -0.29093  -0.26694
 Alpha  occ. eigenvalues --   -0.25091
 Alpha virt. eigenvalues --    0.01470   0.02766   0.04790   0.05856   0.06110
 Alpha virt. eigenvalues --    0.08209   0.08809   0.11186   0.14212   0.15465
 Alpha virt. eigenvalues --    0.16472   0.17108   0.17588   0.18310   0.18917

 Mulliken atomic charges:
              1
     1  C   -0.196900
     2  C   -0.158429
     3  C    0.035163
     4  C   -0.008037
     5  N   -0.427430
     6  C    0.023843
     7  C    0.281081
     8  C   -0.253986
     9  C    0.049488
    10  N   -0.501282
    11  C    0.715707
    12  N   -0.550520
    13  N   -0.811308
    14  C    0.281926
    15  C    0.116530
    16  C   -0.230481
    17  C   -0.228245
    18  C    0.341508
    19  C   -0.196069
    20  N   -0.764769
    21  C    0.601548
    22  C    0.018814
    23  C   -0.208097
    24  C   -0.220006
    25  C    0.159987
    26  C   -0.223113
    27  C   -0.167988
    28  C   -0.264407
    29  N   -0.380964
    30  C   -0.184909
    31  C   -0.181068
    32  N   -0.385554
    33  C   -0.350132
    34  C   -0.182715
    35  C   -0.186530
    36  O   -0.507772
    37  C   -0.609819
    38  H    0.175651
    39  H    0.177426
    40  H    0.244841
    41  H    0.173603
    42  H    0.178747
    43  H    0.184408
    44  H    0.367770
    45  H    0.157878
    46  H    0.156065
    47  H    0.244055
    48  H    0.353231
    49  H    0.170637
    50  H    0.163735
    51  H    0.167105
    52  H    0.206355
    53  H    0.170062
    54  H    0.171650
    55  H    0.151228
    56  H    0.160644
    57  H    0.151762
    58  H    0.164063
    59  H    0.135914
    60  H    0.166555
    61  H    0.167884
    62  H    0.154317
    63  H    0.170400
    64  H    0.160451
    65  H    0.154448
    66  H    0.185151
    67  H    0.181921
    68  H    0.186980
 Sum of Mulliken atomic charges =   0.00000

 Dipole moment (field-independent basis, Debye):
    X=             -0.0420    Y=              0.0690    Z=             -1.9994  Tot=              2.0011
 Quadrupole moment (field-independent basis, Debye-Ang):
   XX=           -183.7867   YY=           -191.0388   ZZ=           -213.2443
   XY=             -9.3159   XZ=              1.1200   YZ=             -3.5792

 Normal termination of Gaussian 09 at Wed Apr  8 23:44:29 2020.
