                               Psi4 1.3.2 release

  ==> Input File <==

--------------------------------------------------------------------------
molecule {
0 1
 C   -1.885706    5.147293   -0.695169
 C   -3.172307    4.590979   -0.672329
 C   -3.338310    3.209663   -0.448595
 C   -2.145166    2.476500   -0.231815
 N   -0.907542    2.987465   -0.244916
 C   -0.789982    4.303174   -0.480695
 C   -4.681959    2.522250   -0.419097
 C   -5.930288    3.156214   -0.523347
 C   -7.045745    2.314778   -0.441811
 N   -6.984536    0.994324   -0.292621
 C   -5.744048    0.467106   -0.224656
 N   -4.617973    1.183793   -0.282321
 N   -5.685256   -0.913084   -0.089590
 C   -4.596931   -1.839174    0.113071
 C   -4.869265   -3.152320    0.603300
 C   -3.768559   -4.003121    0.803304
 C   -2.441229   -3.636716    0.550852
 C   -2.192388   -2.354928    0.049684
 C   -3.271670   -1.483344   -0.164862
 N   -0.906745   -1.807788   -0.265300
 C    0.362988   -2.281094   -0.032817
 C    1.535969   -1.363656   -0.327123
 C    1.465050    0.039031   -0.282508
 C    2.586319    0.815721   -0.581836
 C    3.830979    0.232773   -0.892742
 C    3.883317   -1.172817   -0.937161
 C    2.766252   -1.960017   -0.648851
 C    5.040607    1.115891   -1.214376
 N    6.331604    0.986770   -0.512901
 C    7.203506   -0.192675   -0.720223
 C    7.093462   -1.315014    0.347245
 N    7.240813   -0.837094    1.741269
 C    8.607483   -0.627941    2.234673
 C    6.278761    0.269135    1.963597
 C    6.381561    1.399056    0.909217
 O    0.566137   -3.413248    0.378497
 C   -6.265522   -3.649230    0.936622
 H   -1.734676    6.207834   -0.874027
 H   -4.020529    5.248146   -0.847064
 H   -2.197089    1.416702   -0.008750
 H    0.225543    4.696382   -0.489316
 H   -6.061742    4.225705   -0.633461
 H   -8.051503    2.730445   -0.497971
 H   -6.620351   -1.286274   -0.022977
 H   -3.936738   -5.007615    1.189615
 H   -1.620425   -4.320224    0.730482
 H   -3.088867   -0.495539   -0.554843
 H   -0.942095   -0.894873   -0.695983
 H    0.530208    0.529002   -0.018767
 H    2.481226    1.900107   -0.545868
 H    4.794438   -1.678762   -1.246500
 H    2.823525   -3.045015   -0.688268
 H    5.255793    0.982842   -2.284966
 H    4.742963    2.163841   -1.061392
 H    7.116742   -0.558446   -1.717772
 H    8.705953    0.347116   -0.571039
 H    8.209788   -2.292600    0.059342
 H    6.247497   -1.817888    0.293413
 H    9.100421    0.188405    1.695020
 H    9.198960   -1.542117    2.110738
 H    8.588927   -0.382621    3.302818
 H    6.350172    0.607264    2.925335
 H    4.820919   -0.352298    1.780415
 H    7.719130    2.097530    1.142265
 H    5.292246    2.377942    1.193376
 H   -6.907664   -3.670083    0.044698
 H   -6.754306   -3.005619    1.681645
 H   -6.270647   -4.666691    1.351595
}
memory 20GB
set_num_threads(6)
psi4_io.set_default_path("/scratch/bdw2292")
set freeze_core True
E, wfn = energy('mp2/6-311++G**',return_wfn=True)
oeprop(wfn,"WIBERG_LOWDIN_INDICES")
clean()
--------------------------------------------------------------------------

    Molecular point group: c1

    Geometry (in Angstrom), charge = 0, multiplicity = 1:

       Center              X                  Y                   Z               Mass
    ------------   -----------------  -----------------  -----------------  -----------------
         C           -1.712838759265     5.109233748488    -0.687988277168    12.000000000000
         C           -2.999439759265     4.552919748488    -0.665148277168    12.000000000000
         C           -3.165442759265     3.171603748488    -0.441414277168    12.000000000000
         C           -1.972298759265     2.438440748488    -0.224634277168    12.000000000000
         N           -0.734674759265     2.949405748488    -0.237735277168    14.003074004430
         C           -0.617114759265     4.265114748488    -0.473514277168    12.000000000000
         C           -4.509091759265     2.484190748488    -0.411916277168    12.000000000000
         C           -5.757420759265     3.118154748488    -0.516166277168    12.000000000000
         C           -6.872877759265     2.276718748488    -0.434630277168    12.000000000000
         N           -6.811668759265     0.956264748488    -0.285440277168    14.003074004430
         C           -5.571180759265     0.429046748488    -0.217475277168    12.000000000000
         N           -4.445105759265     1.145733748488    -0.275140277168    14.003074004430
         N           -5.512388759265    -0.951143251512    -0.082409277168    14.003074004430
         C           -4.424063759265    -1.877233251512     0.120251722832    12.000000000000
         C           -4.696397759265    -3.190379251512     0.610480722832    12.000000000000
         C           -3.595691759265    -4.041180251512     0.810484722832    12.000000000000
         C           -2.268361759265    -3.674775251512     0.558032722832    12.000000000000
         C           -2.019520759265    -2.392987251512     0.056864722832    12.000000000000
         C           -3.098802759265    -1.521403251512    -0.157681277168    12.000000000000
         N           -0.733877759265    -1.845847251512    -0.258119277168    14.003074004430
         C            0.535855240735    -2.319153251512    -0.025636277168    12.000000000000
         C            1.708836240735    -1.401715251512    -0.319942277168    12.000000000000
         C            1.637917240735     0.000971748488    -0.275327277168    12.000000000000
         C            2.759186240735     0.777661748488    -0.574655277168    12.000000000000
         C            4.003846240735     0.194713748488    -0.885561277168    12.000000000000
         C            4.056184240735    -1.210876251512    -0.929980277168    12.000000000000
         C            2.939119240735    -1.998076251512    -0.641670277168    12.000000000000
         C            5.213474240735     1.077831748488    -1.207195277168    12.000000000000
         N            6.504471240735     0.948710748488    -0.505720277168    14.003074004430
         C            7.376373240735    -0.230734251512    -0.713042277168    12.000000000000
         C            7.266329240735    -1.353073251512     0.354425722832    12.000000000000
         N            7.413680240735    -0.875153251512     1.748449722832    14.003074004430
         C            8.780350240735    -0.666000251512     2.241853722832    12.000000000000
         C            6.451628240735     0.231075748488     1.970777722832    12.000000000000
         C            6.554428240735     1.360996748488     0.916397722832    12.000000000000
         O            0.739004240735    -3.451307251512     0.385677722832    15.994914619570
         C           -6.092654759265    -3.687289251512     0.943802722832    12.000000000000
         H           -1.561808759265     6.169774748488    -0.866846277168     1.007825032230
         H           -3.847661759265     5.210086748488    -0.839883277168     1.007825032230
         H           -2.024221759265     1.378642748488    -0.001569277168     1.007825032230
         H            0.398410240735     4.658322748488    -0.482135277168     1.007825032230
         H           -5.888874759265     4.187645748488    -0.626280277168     1.007825032230
         H           -7.878635759265     2.692385748488    -0.490790277168     1.007825032230
         H           -6.447483759265    -1.324333251512    -0.015796277168     1.007825032230
         H           -3.763870759265    -5.045674251512     1.196795722832     1.007825032230
         H           -1.447557759265    -4.358283251512     0.737662722832     1.007825032230
         H           -2.915999759265    -0.533598251512    -0.547662277168     1.007825032230
         H           -0.769227759265    -0.932932251512    -0.688802277168     1.007825032230
         H            0.703075240735     0.490942748488    -0.011586277168     1.007825032230
         H            2.654093240735     1.862047748488    -0.538687277168     1.007825032230
         H            4.967305240735    -1.716821251512    -1.239319277168     1.007825032230
         H            2.996392240735    -3.083074251512    -0.681087277168     1.007825032230
         H            5.428660240735     0.944782748488    -2.277785277168     1.007825032230
         H            4.915830240735     2.125781748488    -1.054211277168     1.007825032230
         H            7.289609240735    -0.596505251512    -1.710591277168     1.007825032230
         H            8.878820240735     0.309056748488    -0.563858277168     1.007825032230
         H            8.382655240735    -2.330659251512     0.066522722832     1.007825032230
         H            6.420364240735    -1.855947251512     0.300593722832     1.007825032230
         H            9.273288240735     0.150345748488     1.702200722832     1.007825032230
         H            9.371827240735    -1.580176251512     2.117918722832     1.007825032230
         H            8.761794240735    -0.420680251512     3.309998722832     1.007825032230
         H            6.523039240735     0.569204748488     2.932515722832     1.007825032230
         H            4.993786240735    -0.390357251512     1.787595722832     1.007825032230
         H            7.891997240735     2.059470748488     1.149445722832     1.007825032230
         H            5.465113240735     2.339882748488     1.200556722832     1.007825032230
         H           -6.734796759265    -3.708142251512     0.051878722832     1.007825032230
         H           -6.581438759265    -3.043678251512     1.688825722832     1.007825032230
         H           -6.097779759265    -4.704750251512     1.358775722832     1.007825032230

  Charge       = 0
  Multiplicity = 1
  Basis Set: 6-311++G**
    Blend: 6-311++G**
  Basis Set: (6-311++G** AUX)
    Blend: AUG-CC-PVTZ-JKFIT

    Orbital Energies [Eh]
    ---------------------

    Doubly Occupied:

       1A    -20.519622     2A    -15.604285     3A    -15.601729
       4A    -15.588456     5A    -15.579717     6A    -15.575012
       7A    -15.569753     8A    -15.557929     9A    -11.376197
      10A    -11.363661    11A    -11.342221    12A    -11.335292
      13A    -11.314906    14A    -11.311473    15A    -11.302427
      16A    -11.301995    17A    -11.301656    18A    -11.301498
      19A    -11.292924    20A    -11.290376    21A    -11.289897
      22A    -11.281634    23A    -11.281447    24A    -11.266604
      25A    -11.260402    26A    -11.256141    27A    -11.253655
      28A    -11.253306    29A    -11.249249    30A    -11.247294
      31A    -11.246324    32A    -11.245720    33A    -11.244661
      34A    -11.239760    35A    -11.235499    36A    -11.230940
      37A    -11.224769    38A     -1.385952    39A     -1.344958
      40A     -1.279723    41A     -1.250765    42A     -1.250323
      43A     -1.241255    44A     -1.210387    45A     -1.204996
      46A     -1.161906    47A     -1.139751    48A     -1.116654
      49A     -1.076064    50A     -1.060083    51A     -1.049398
      52A     -1.038435    53A     -1.023233    54A     -1.008149
      55A     -1.007823    56A     -0.981214    57A     -0.948799
      58A     -0.932052    59A     -0.927264    60A     -0.901442
      61A     -0.873532    62A     -0.869466    63A     -0.858855
      64A     -0.851582    65A     -0.841741    66A     -0.832470
      67A     -0.825866    68A     -0.808826    69A     -0.779034
      70A     -0.754788    71A     -0.740518    72A     -0.731701
      73A     -0.727830    74A     -0.722231    75A     -0.699311
      76A     -0.683492    77A     -0.672358    78A     -0.666016
      79A     -0.660017    80A     -0.656692    81A     -0.651967
      82A     -0.642762    83A     -0.637615    84A     -0.632350
      85A     -0.627183    86A     -0.622257    87A     -0.620481
      88A     -0.614315    89A     -0.611236    90A     -0.606763
      91A     -0.602811    92A     -0.598922    93A     -0.596133
      94A     -0.591905    95A     -0.589138    96A     -0.582140
      97A     -0.580602    98A     -0.579174    99A     -0.568933
     100A     -0.562466   101A     -0.548334   102A     -0.545255
     103A     -0.541966   104A     -0.529840   105A     -0.525222
     106A     -0.521991   107A     -0.513469   108A     -0.509170
     109A     -0.504523   110A     -0.494793   111A     -0.493320
     112A     -0.485271   113A     -0.483287   114A     -0.480382
     115A     -0.455633   116A     -0.452742   117A     -0.444130
     118A     -0.427857   119A     -0.425637   120A     -0.417677
     121A     -0.415349   122A     -0.401212   123A     -0.395653
     124A     -0.378372   125A     -0.374276   126A     -0.347051
     127A     -0.345313   128A     -0.340787   129A     -0.317003
     130A     -0.313626   131A     -0.290357

  @DF-RHF Final Energy: -1572.25039845210858

   => Energetics <=

    Nuclear Repulsion Energy =           3655.3192648784861376
    One-Electron Energy =               -9408.3912688242526201
    Two-Electron Energy =                4180.8216054936583532
    Total Energy =                      -1572.2503984521081293

  Dipole Moment: [D]
     X:    -3.4928      Y:     6.4573      Z:    -1.7035     Total:     7.5365

  Basis Set: (6-311++G** AUX)
    Blend: AUG-CC-PVTZ-RI
	 Reference Energy          =   -1572.2503984521085840 [Eh]
	 Singles Energy            =      -0.0000000000000000 [Eh]
	 Same-Spin Energy          =      -1.4700395815282783 [Eh]
	 Opposite-Spin Energy      =      -4.0496567172688005 [Eh]
	 Correlation Energy        =      -5.5196962987970792 [Eh]
	 Total Energy              =   -1577.7700947509056277 [Eh]

	 ================> DF-SCS-MP2 Energies <==================
	-----------------------------------------------------------
	 SCS Same-Spin Scale       =       0.3333333333333333 [-]
	 SCS Opposite-Spin Scale   =       1.2000000000000000 [-]
	 SCS Same-Spin Energy      =      -0.4900131938427594 [Eh]
	 SCS Opposite-Spin Energy  =      -4.8595880607225608 [Eh]
	 SCS Correlation Energy    =      -5.3496012545653198 [Eh]
	 SCS Total Energy          =   -1577.5999997066739979 [Eh]
	-----------------------------------------------------------

*** Psi4 exiting successfully. Buy a developer a beer!
