                               Psi4 1.3.2 release

  ==> Input File <==

--------------------------------------------------------------------------
molecule {
0 1
 C    1.002231    4.816184   -1.049735
 C    2.306340    4.547324   -0.612513
 C    2.745668    3.214522   -0.493052
 C    1.809459    2.219537   -0.868132
 N    0.559956    2.455681   -1.288470
 C    0.169758    3.737373   -1.369787
 C    4.118806    2.822250   -0.008294
 C    5.182144    3.707019    0.234911
 C    6.379813    3.118714    0.660188
 N    6.549623    1.811597    0.850071
 C    5.471340    1.038903    0.609550
 N    4.292095    1.504141    0.195627
 N    5.644658   -0.317288    0.821955
 C    4.808502   -1.463186    0.564368
 C    5.398288   -2.757680    0.441880
 C    4.538470   -3.833360    0.161511
 C    3.154063   -3.706253   -0.003645
 C    2.582825   -2.438086    0.146021
 C    3.418482   -1.347616    0.433870
 N    1.191307   -2.124195    0.011790
 C    0.123705   -2.869445   -0.434070
 C   -1.195611   -2.149803   -0.654596
 C   -1.305928   -0.787487   -0.985503
 C   -2.561216   -0.192279   -1.133895
 C   -3.749850   -0.931576   -0.983088
 C   -3.624268   -2.304578   -0.696578
 C   -2.373741   -2.907778   -0.542653
 C   -5.125848   -0.281218   -1.150598
 N   -6.198383   -0.630077   -0.202234
 C   -7.596712   -0.291497   -0.545312
 C   -8.007797    1.124406   -0.066849
 N   -7.764854    1.376863    1.375825
 C   -8.801795    0.906462    2.301889
 C   -6.367172    1.005817    1.711143
 C   -5.952465   -0.411369    1.239846
 O    0.209626   -4.071664   -0.635021
 C    6.890732   -3.008134    0.578342
 H    0.638495    5.835588   -1.138642
 H    2.950930    5.383055   -0.350870
 H    2.088053    1.170494   -0.851719
 H   -0.851273    3.894245   -1.714655
 H    5.132187    4.779914    0.095210
 H    7.270210    3.712785    0.863952
 H    6.602187   -0.495273    1.084933
 H    4.958925   -4.832194    0.051428
 H    2.528576   -4.558056   -0.239492
 H    2.979639   -0.372868    0.569098
 H    0.964562   -1.164976    0.231841
 H   -0.409836   -0.187044   -1.126562
 H   -2.604388    0.870425   -1.372047
 H   -4.519175   -2.915711   -0.587354
 H   -2.295071   -3.969510   -0.320884
 H   -4.979736    0.807521   -1.166586
 H   -5.516673   -0.561608   -2.139098
 H   -7.787114   -0.417888   -1.777522
 H   -8.460417   -1.263968    0.108295
 H   -9.221436    1.343325   -0.326331
 H   -7.210235    2.108763   -0.813337
 H   -8.865069   -0.187801    2.295043
 H   -9.777327    1.318920    2.019391
 H   -8.579195    1.241653    3.321472
 H   -6.193193    1.124412    2.977975
 H   -5.488883    1.992919    1.045452
 H   -6.719870   -1.370362    1.963235
 H   -4.758060   -0.636839    1.515760
 H    7.274351   -2.743930    1.574170
 H    7.456840   -2.422769   -0.151680
 H    7.159430   -4.054978    0.413741
}
memory 20GB
set_num_threads(6)
psi4_io.set_default_path("/scratch/bdw2292")
set freeze_core True
E, wfn = energy('mp2/6-311++G**',return_wfn=True)
oeprop(wfn,"WIBERG_LOWDIN_INDICES")
clean()
--------------------------------------------------------------------------

    Molecular point group: c1

    Geometry (in Angstrom), charge = 0, multiplicity = 1:

       Center              X                  Y                   Z               Mass
    ------------   -----------------  -----------------  -----------------  -----------------
         C            0.884905101904     4.811436425398    -1.030427563564    12.000000000000
         C            2.189014101904     4.542576425398    -0.593205563564    12.000000000000
         C            2.628342101904     3.209774425398    -0.473744563564    12.000000000000
         C            1.692133101904     2.214789425398    -0.848824563564    12.000000000000
         N            0.442630101904     2.450933425398    -1.269162563564    14.003074004430
         C            0.052432101904     3.732625425398    -1.350479563564    12.000000000000
         C            4.001480101904     2.817502425398     0.011013436436    12.000000000000
         C            5.064818101904     3.702271425398     0.254218436436    12.000000000000
         C            6.262487101904     3.113966425398     0.679495436436    12.000000000000
         N            6.432297101904     1.806849425398     0.869378436436    14.003074004430
         C            5.354014101904     1.034155425398     0.628857436436    12.000000000000
         N            4.174769101904     1.499393425398     0.214934436436    14.003074004430
         N            5.527332101904    -0.322035574602     0.841262436436    14.003074004430
         C            4.691176101904    -1.467933574602     0.583675436436    12.000000000000
         C            5.280962101904    -2.762427574602     0.461187436436    12.000000000000
         C            4.421144101904    -3.838107574602     0.180818436436    12.000000000000
         C            3.036737101904    -3.711000574602     0.015662436436    12.000000000000
         C            2.465499101904    -2.442833574602     0.165328436436    12.000000000000
         C            3.301156101904    -1.352363574602     0.453177436436    12.000000000000
         N            1.073981101904    -2.128942574602     0.031097436436    14.003074004430
         C            0.006379101904    -2.874192574602    -0.414762563564    12.000000000000
         C           -1.312936898096    -2.154550574602    -0.635288563564    12.000000000000
         C           -1.423253898096    -0.792234574602    -0.966195563564    12.000000000000
         C           -2.678541898096    -0.197026574602    -1.114587563564    12.000000000000
         C           -3.867175898096    -0.936323574602    -0.963780563564    12.000000000000
         C           -3.741593898096    -2.309325574602    -0.677270563564    12.000000000000
         C           -2.491066898096    -2.912525574602    -0.523345563564    12.000000000000
         C           -5.243173898096    -0.285965574602    -1.131290563564    12.000000000000
         N           -6.315708898096    -0.634824574602    -0.182926563564    14.003074004430
         C           -7.714037898096    -0.296244574602    -0.526004563564    12.000000000000
         C           -8.125122898096     1.119658425398    -0.047541563564    12.000000000000
         N           -7.882179898096     1.372115425398     1.395132436436    14.003074004430
         C           -8.919120898096     0.901714425398     2.321196436436    12.000000000000
         C           -6.484497898096     1.001069425398     1.730450436436    12.000000000000
         C           -6.069790898096    -0.416116574602     1.259153436436    12.000000000000
         O            0.092300101904    -4.076411574602    -0.615713563564    15.994914619570
         C            6.773406101904    -3.012881574602     0.597649436436    12.000000000000
         H            0.521169101904     5.830840425398    -1.119334563564     1.007825032230
         H            2.833604101904     5.378307425398    -0.331562563564     1.007825032230
         H            1.970727101904     1.165746425398    -0.832411563564     1.007825032230
         H           -0.968598898096     3.889497425398    -1.695347563564     1.007825032230
         H            5.014861101904     4.775166425398     0.114517436436     1.007825032230
         H            7.152884101904     3.708037425398     0.883259436436     1.007825032230
         H            6.484861101904    -0.500020574602     1.104240436436     1.007825032230
         H            4.841599101904    -4.836941574602     0.070735436436     1.007825032230
         H            2.411250101904    -4.562803574602    -0.220184563564     1.007825032230
         H            2.862313101904    -0.377615574602     0.588405436436     1.007825032230
         H            0.847236101904    -1.169723574602     0.251148436436     1.007825032230
         H           -0.527161898096    -0.191791574602    -1.107254563564     1.007825032230
         H           -2.721713898096     0.865677425398    -1.352739563564     1.007825032230
         H           -4.636500898096    -2.920458574602    -0.568046563564     1.007825032230
         H           -2.412396898096    -3.974257574602    -0.301576563564     1.007825032230
         H           -5.097061898096     0.802773425398    -1.147278563564     1.007825032230
         H           -5.633998898096    -0.566355574602    -2.119790563564     1.007825032230
         H           -7.904439898096    -0.422635574602    -1.758214563564     1.007825032230
         H           -8.577742898096    -1.268715574602     0.127602436436     1.007825032230
         H           -9.338761898096     1.338577425398    -0.307023563564     1.007825032230
         H           -7.327560898096     2.104015425398    -0.794029563564     1.007825032230
         H           -8.982394898096    -0.192548574602     2.314350436436     1.007825032230
         H           -9.894652898096     1.314172425398     2.038698436436     1.007825032230
         H           -8.696520898096     1.236905425398     3.340779436436     1.007825032230
         H           -6.310518898096     1.119664425398     2.997282436436     1.007825032230
         H           -5.606208898096     1.988171425398     1.064759436436     1.007825032230
         H           -6.837195898096    -1.375109574602     1.982542436436     1.007825032230
         H           -4.875385898096    -0.641586574602     1.535067436436     1.007825032230
         H            7.157025101904    -2.748677574602     1.593477436436     1.007825032230
         H            7.339514101904    -2.427516574602    -0.132372563564     1.007825032230
         H            7.042104101904    -4.059725574602     0.433048436436     1.007825032230

  Charge       = 0
  Multiplicity = 1
  Basis Set: 6-311++G**
    Blend: 6-311++G**
  Basis Set: (6-311++G** AUX)
    Blend: AUG-CC-PVTZ-JKFIT

    Orbital Energies [Eh]
    ---------------------

    Doubly Occupied:

       1A    -20.518381     2A    -15.602916     3A    -15.599908
       4A    -15.586406     5A    -15.572995     6A    -15.567488
       7A    -15.565913     8A    -15.564948     9A    -11.373561
      10A    -11.362319    11A    -11.333781    12A    -11.320518
      13A    -11.318817    14A    -11.318414    15A    -11.313379
      16A    -11.310795    17A    -11.300834    18A    -11.300224
      19A    -11.299728    20A    -11.291836    21A    -11.289054
      22A    -11.279764    23A    -11.274449    24A    -11.265377
      25A    -11.259169    26A    -11.254773    27A    -11.253459
      28A    -11.252054    29A    -11.250704    30A    -11.246400
      31A    -11.244549    32A    -11.243759    33A    -11.238774
      34A    -11.238176    35A    -11.233261    36A    -11.230442
      37A    -11.224009    38A     -1.383792    39A     -1.344736
      40A     -1.277886    41A     -1.249390    42A     -1.247805
      43A     -1.240559    44A     -1.209092    45A     -1.202618
      46A     -1.157926    47A     -1.138657    48A     -1.115451
      49A     -1.074582    50A     -1.057414    51A     -1.047605
      52A     -1.036716    53A     -1.018210    54A     -1.006901
      55A     -0.992312    56A     -0.974715    57A     -0.946431
      58A     -0.929059    59A     -0.925991    60A     -0.900177
      61A     -0.872083    62A     -0.863443    63A     -0.857402
      64A     -0.841172    65A     -0.829977    66A     -0.825464
      67A     -0.823047    68A     -0.803676    69A     -0.776097
      70A     -0.753562    71A     -0.737823    72A     -0.728911
      73A     -0.721228    74A     -0.699262    75A     -0.692776
      76A     -0.681797    77A     -0.668146    78A     -0.664430
      79A     -0.656950    80A     -0.651304    81A     -0.648792
      82A     -0.643072    83A     -0.634140    84A     -0.626205
      85A     -0.623587    86A     -0.619987    87A     -0.611690
      88A     -0.606244    89A     -0.604436    90A     -0.601577
      91A     -0.596767    92A     -0.595226    93A     -0.592133
      94A     -0.587924    95A     -0.583820    96A     -0.581628
      97A     -0.579488    98A     -0.574258    99A     -0.560933
     100A     -0.557458   101A     -0.547240   102A     -0.545786
     103A     -0.543874   104A     -0.526442   105A     -0.522073
     106A     -0.515164   107A     -0.513184   108A     -0.510043
     109A     -0.507387   110A     -0.499038   111A     -0.495683
     112A     -0.492912   113A     -0.483884   114A     -0.477313
     115A     -0.459055   116A     -0.451099   117A     -0.442265
     118A     -0.436223   119A     -0.425803   120A     -0.424153
     121A     -0.413594   122A     -0.406369   123A     -0.399718
     124A     -0.386386   125A     -0.372766   126A     -0.345591
     127A     -0.339479   128A     -0.336236   129A     -0.320038
     130A     -0.313272   131A     -0.289650

  @DF-RHF Final Energy: -1572.33762709091297

   => Energetics <=

    Nuclear Repulsion Energy =           3626.2154218387622677
    One-Electron Energy =               -9350.9081264048181765
    Two-Electron Energy =                4152.3550774751429344
    Total Energy =                      -1572.3376270909129744

  Dipole Moment: [D]
     X:     0.6365      Y:     6.7682      Z:     0.6539     Total:     6.8295

  Basis Set: (6-311++G** AUX)
    Blend: AUG-CC-PVTZ-RI
	 Reference Energy          =   -1572.3376270909129744 [Eh]
	 Singles Energy            =      -0.0000000000000000 [Eh]
	 Same-Spin Energy          =      -1.4681851015443770 [Eh]
	 Opposite-Spin Energy      =      -4.0459654144715209 [Eh]
	 Correlation Energy        =      -5.5141505160158975 [Eh]
	 Total Energy              =   -1577.8517776069288630 [Eh]

	 ================> DF-SCS-MP2 Energies <==================
	-----------------------------------------------------------
	 SCS Same-Spin Scale       =       0.3333333333333333 [-]
	 SCS Opposite-Spin Scale   =       1.2000000000000000 [-]
	 SCS Same-Spin Energy      =      -0.4893950338481257 [Eh]
	 SCS Opposite-Spin Energy  =      -4.8551584973658253 [Eh]
	 SCS Correlation Energy    =      -5.3445535312139505 [Eh]
	 SCS Total Energy          =   -1577.6821806221269071 [Eh]
	-----------------------------------------------------------

*** Psi4 exiting successfully. Buy a developer a beer!
