 Gaussian 09, Revision A.02,
 Gaussian 09:  EM64L-G09RevA.02 11-Jun-2009

 --------------------------------------------------
 #P opt=(,maxcycle=400) wB97XD/6-31G* MaxDisk=100GB
 --------------------------------------------------

 --------------------------------------------------------------
 MOLECULE0 Rotatable Bond Optimization on node37.bme.utexas.edu
 --------------------------------------------------------------
 Symbolic Z-matrix:
 Charge =  0 Multiplicity = 1

 SCF Done:  E(RwB97XD) =  -1581.51439602     A.U. after   16 cycles
 SCF Done:  E(RwB97XD) =  -1581.57394140     A.U. after   13 cycles
 SCF Done:  E(RwB97XD) =  -1581.67168421     A.U. after   14 cycles
 SCF Done:  E(RwB97XD) =  -1581.71938136     A.U. after   14 cycles
 SCF Done:  E(RwB97XD) =  -1581.73562134     A.U. after   17 cycles
 SCF Done:  E(RwB97XD) =  -1581.74437525     A.U. after   17 cycles
 SCF Done:  E(RwB97XD) =  -1581.74961886     A.U. after   14 cycles
 SCF Done:  E(RwB97XD) =  -1581.75099573     A.U. after   17 cycles
 SCF Done:  E(RwB97XD) =  -1581.75274643     A.U. after   14 cycles
 SCF Done:  E(RwB97XD) =  -1581.74949403     A.U. after   17 cycles
 SCF Done:  E(RwB97XD) =  -1581.76308556     A.U. after   13 cycles
 SCF Done:  E(RwB97XD) =  -1581.76315991     A.U. after   13 cycles
 SCF Done:  E(RwB97XD) =  -1581.76320301     A.U. after   12 cycles
 SCF Done:  E(RwB97XD) =  -1581.76320518     A.U. after   12 cycles
 SCF Done:  E(RwB97XD) =  -1581.76321308     A.U. after   10 cycles
 SCF Done:  E(RwB97XD) =  -1581.76321578     A.U. after   10 cycles
 SCF Done:  E(RwB97XD) =  -1581.76321589     A.U. after    8 cycles
 SCF Done:  E(RwB97XD) =  -1581.76321582     A.U. after    7 cycles
 SCF Done:  E(RwB97XD) =  -1581.76321593     A.U. after    7 cycles
 SCF Done:  E(RwB97XD) =  -1581.76321590     A.U. after    6 cycles
 Optimization completed.
    -- Stationary point found.

                         Standard orientation:
 ---------------------------------------------------------------------
 Center     Atomic      Atomic             Coordinates (Angstroms)
 Number     Number       Type             X           Y           Z
 ---------------------------------------------------------------------
      1          6           0       -0.473523    4.274905   -0.771758
      2          6           0        0.870999    4.192315   -0.430399
      3          6           0        1.547519    2.990372   -0.631574
      4          6           0        0.821182    1.926294   -1.182691
      5          7           0       -0.467779    1.989936   -1.511821
      6          6           0       -1.096775    3.149938   -1.300783
      7          6           0        2.969374    2.789280   -0.253834
      8          6           0        3.900351    3.819277   -0.154486
      9          6           0        5.186285    3.446724    0.235421
     10          7           0        5.545654    2.197399    0.496745
     11          6           0        4.572236    1.274968    0.354578
     12          7           0        3.312221    1.523631   -0.002035
     13          7           0        4.960946   -0.011023    0.613300
     14          6           0        4.245221   -1.217105    0.494639
     15          6           0        4.968933   -2.426840    0.480115
     16          6           0        4.248327   -3.609656    0.338617
     17          6           0        2.862618   -3.650877    0.195204
     18          6           0        2.171410   -2.443286    0.216590
     19          6           0        2.859709   -1.243346    0.393276
     20          7           0        0.784962   -2.305186    0.038246
     21          6           0       -0.155304   -3.232494   -0.331194
     22          6           0       -1.474859   -2.601088   -0.675310
     23          6           0       -1.550161   -1.358241   -1.311095
     24          6           0       -2.782584   -0.779021   -1.574585
     25          6           0       -3.965844   -1.410169   -1.191080
     26          6           0       -3.883978   -2.677513   -0.607367
     27          6           0       -2.653784   -3.274376   -0.357368
     28          6           0       -5.302958   -0.704490   -1.348004
     29          7           0       -5.692871    0.225953   -0.299462
     30          6           0       -5.025816    1.522601   -0.247776
     31          6           0       -3.815750    1.577675    0.702552
     32          7           0       -4.113038    1.069237    2.038778
     33          6           0       -4.901665    1.978650    2.850927
     34          6           0       -4.679319   -0.274135    1.940255
     35          6           0       -5.914525   -0.339879    1.026660
     36          8           0        0.036584   -4.436360   -0.364446
     37          6           0        6.471662   -2.442670    0.600466
     38          1           0       -1.033013    5.191516   -0.618975
     39          1           0        1.375969    5.045400    0.013585
     40          1           0        1.325397    0.981004   -1.366706
     41          1           0       -2.151703    3.176718   -1.565264
     42          1           0        3.661381    4.851070   -0.380392
     43          1           0        5.967842    4.196877    0.338312
     44          1           0        5.942206   -0.077148    0.839059
     45          1           0        4.796513   -4.548369    0.325739
     46          1           0        2.333716   -4.584938    0.064264
     47          1           0        2.314684   -0.311949    0.418410
     48          1           0        0.446474   -1.358734    0.129537
     49          1           0       -0.653797   -0.833276   -1.628264
     50          1           0       -2.810705    0.190285   -2.065775
     51          1           0       -4.798614   -3.197350   -0.330685
     52          1           0       -2.589970   -4.256833    0.099751
     53          1           0       -5.308867   -0.149463   -2.293916
     54          1           0       -6.095269   -1.460387   -1.422144
     55          1           0       -4.724212    1.803731   -1.263917
     56          1           0       -5.767015    2.267844    0.078122
     57          1           0       -3.458298    2.611518    0.791792
     58          1           0       -2.991023    0.982249    0.295430
     59          1           0       -5.911778    2.206203    2.466964
     60          1           0       -4.363881    2.928024    2.950733
     61          1           0       -5.017276    1.552058    3.853282
     62          1           0       -4.937803   -0.622362    2.947672
     63          1           0       -3.897524   -0.937877    1.552876
     64          1           0       -6.743140    0.208890    1.498642
     65          1           0       -6.248510   -1.377646    0.916050
     66          1           0        6.816695   -2.030820    1.558756
     67          1           0        6.952370   -1.866530   -0.200850
     68          1           0        6.851902   -3.465340    0.537244
 ---------------------------------------------------------------------

 The electronic state is 1-A.
 Alpha  occ. eigenvalues --  -19.23411 -14.49282 -14.48321 -14.46751 -14.46096
 Alpha  occ. eigenvalues --  -14.45764 -14.43616 -14.43135 -10.41778 -10.40081
 Alpha  occ. eigenvalues --  -10.37615 -10.36338 -10.35324 -10.35084 -10.34623
 Alpha  occ. eigenvalues --  -10.34135 -10.34016 -10.33622 -10.32863 -10.32367
 Alpha  occ. eigenvalues --  -10.31861 -10.31491 -10.31180 -10.30936 -10.30707
 Alpha  occ. eigenvalues --  -10.30688 -10.30676 -10.30586 -10.30534 -10.30402
 Alpha  occ. eigenvalues --  -10.30377 -10.30220 -10.30021 -10.29975 -10.29575
 Alpha  occ. eigenvalues --  -10.28739 -10.28405  -1.13444  -1.12295  -1.06322
 Alpha  occ. eigenvalues --   -1.04565  -1.03829  -1.03634  -1.00715  -0.99558
 Alpha  occ. eigenvalues --   -0.96086  -0.94671  -0.93098  -0.89778  -0.88124
 Alpha  occ. eigenvalues --   -0.87388  -0.86227  -0.85399  -0.84542  -0.83783
 Alpha  occ. eigenvalues --   -0.81888  -0.79581  -0.78270  -0.77798  -0.76320
 Alpha  occ. eigenvalues --   -0.73881  -0.73301  -0.73025  -0.72621  -0.70871
 Alpha  occ. eigenvalues --   -0.70314  -0.69614  -0.68039  -0.66413  -0.65150
 Alpha  occ. eigenvalues --   -0.63656  -0.63408  -0.62228  -0.61762  -0.60211
 Alpha  occ. eigenvalues --   -0.58848  -0.58045  -0.57570  -0.56611  -0.56101
 Alpha  occ. eigenvalues --   -0.55817  -0.55236  -0.55134  -0.54965  -0.54255
 Alpha  occ. eigenvalues --   -0.53867  -0.53238  -0.53154  -0.52612  -0.52174
 Alpha  occ. eigenvalues --   -0.51912  -0.51510  -0.51370  -0.50999  -0.50575
 Alpha  occ. eigenvalues --   -0.50365  -0.50116  -0.49975  -0.49497  -0.48335
 Alpha  occ. eigenvalues --   -0.47217  -0.46906  -0.46619  -0.46319  -0.46211
 Alpha  occ. eigenvalues --   -0.45762  -0.45236  -0.44798  -0.44045  -0.43932
 Alpha  occ. eigenvalues --   -0.43328  -0.43016  -0.42142  -0.41766  -0.41439
 Alpha  occ. eigenvalues --   -0.40964  -0.40777  -0.39912  -0.38187  -0.37592
 Alpha  occ. eigenvalues --   -0.35821  -0.35293  -0.34001  -0.33446  -0.33373
 Alpha  occ. eigenvalues --   -0.32818  -0.31904  -0.30772  -0.29115  -0.27079
 Alpha  occ. eigenvalues --   -0.24996
 Alpha virt. eigenvalues --   -0.00292   0.02872   0.03585   0.04480   0.06433
 Alpha virt. eigenvalues --    0.07258   0.08205   0.10371   0.13888   0.14816
 Alpha virt. eigenvalues --    0.15728   0.16386   0.17252   0.17441   0.18251

 Mulliken atomic charges:
              1
     1  C   -0.197837
     2  C   -0.154403
     3  C    0.035520
     4  C    0.009571
     5  N   -0.437510
     6  C    0.035721
     7  C    0.295145
     8  C   -0.254763
     9  C    0.049015
    10  N   -0.493035
    11  C    0.714362
    12  N   -0.568398
    13  N   -0.802045
    14  C    0.291468
    15  C    0.119861
    16  C   -0.240382
    17  C   -0.191304
    18  C    0.358215
    19  C   -0.269722
    20  N   -0.758055
    21  C    0.585797
    22  C    0.015182
    23  C   -0.205352
    24  C   -0.217922
    25  C    0.155980
    26  C   -0.223081
    27  C   -0.178387
    28  C   -0.263555
    29  N   -0.382218
    30  C   -0.183903
    31  C   -0.181778
    32  N   -0.385711
    33  C   -0.349274
    34  C   -0.182629
    35  C   -0.186518
    36  O   -0.513283
    37  C   -0.607383
    38  H    0.186140
    39  H    0.186729
    40  H    0.198114
    41  H    0.179047
    42  H    0.180749
    43  H    0.189492
    44  H    0.369212
    45  H    0.160817
    46  H    0.213081
    47  H    0.199383
    48  H    0.361563
    49  H    0.185478
    50  H    0.172046
    51  H    0.163616
    52  H    0.195611
    53  H    0.170277
    54  H    0.168917
    55  H    0.148153
    56  H    0.158371
    57  H    0.141660
    58  H    0.174892
    59  H    0.135264
    60  H    0.164119
    61  H    0.167875
    62  H    0.153490
    63  H    0.172915
    64  H    0.159401
    65  H    0.154994
    66  H    0.178046
    67  H    0.182739
    68  H    0.190423
 Sum of Mulliken atomic charges =   0.00000

 Dipole moment (field-independent basis, Debye):
    X=              0.5803    Y=              6.5721    Z=              0.4336  Tot=              6.6119
 Quadrupole moment (field-independent basis, Debye-Ang):
   XX=           -193.2960   YY=           -202.5059   ZZ=           -220.4832
   XY=              3.1049   XZ=             -1.2810   YZ=             -5.2222

 Normal termination of Gaussian 09 at Wed Apr  8 18:49:47 2020.
