 Gaussian 09, Revision A.02,
 Gaussian 09:  EM64L-G09RevA.02 11-Jun-2009

 --------------------------------------------------
 #P opt=(,maxcycle=400) wB97XD/6-31G* MaxDisk=100GB
 --------------------------------------------------

 --------------------------------------------------------------
 MOLECULE0 Rotatable Bond Optimization on node37.bme.utexas.edu
 --------------------------------------------------------------
 Symbolic Z-matrix:
 Charge =  0 Multiplicity = 1

 SCF Done:  E(RwB97XD) =  -1581.51224173     A.U. after   16 cycles
 SCF Done:  E(RwB97XD) =  -1581.57362012     A.U. after   13 cycles
 SCF Done:  E(RwB97XD) =  -1581.67194285     A.U. after   14 cycles
 SCF Done:  E(RwB97XD) =  -1581.71401698     A.U. after   14 cycles
 SCF Done:  E(RwB97XD) =  -1581.72615570     A.U. after   17 cycles
 SCF Done:  E(RwB97XD) =  -1581.72209639     A.U. after   16 cycles
 SCF Done:  E(RwB97XD) =  -1581.73921210     A.U. after   14 cycles
 SCF Done:  E(RwB97XD) =  -1581.75140512     A.U. after   14 cycles
 SCF Done:  E(RwB97XD) =  -1581.75548436     A.U. after   16 cycles
 SCF Done:  E(RwB97XD) =  -1581.75614457     A.U. after   14 cycles
 SCF Done:  E(RwB97XD) =  -1581.76110191     A.U. after   13 cycles
 SCF Done:  E(RwB97XD) =  -1581.76115354     A.U. after   12 cycles
 SCF Done:  E(RwB97XD) =  -1581.76116629     A.U. after   12 cycles
 SCF Done:  E(RwB97XD) =  -1581.76118110     A.U. after   12 cycles
 SCF Done:  E(RwB97XD) =  -1581.76118950     A.U. after   12 cycles
 SCF Done:  E(RwB97XD) =  -1581.76119246     A.U. after    9 cycles
 SCF Done:  E(RwB97XD) =  -1581.76119286     A.U. after    8 cycles
 SCF Done:  E(RwB97XD) =  -1581.76119309     A.U. after    7 cycles
 SCF Done:  E(RwB97XD) =  -1581.76119325     A.U. after    7 cycles
 SCF Done:  E(RwB97XD) =  -1581.76119325     A.U. after    6 cycles
 Optimization completed.
    -- Stationary point found.

                         Standard orientation:
 ---------------------------------------------------------------------
 Center     Atomic      Atomic             Coordinates (Angstroms)
 Number     Number       Type             X           Y           Z
 ---------------------------------------------------------------------
      1          6           0       -1.728511    4.863781    0.781785
      2          6           0       -2.924282    4.157345    0.772093
      3          6           0       -2.960184    2.892268    0.186485
      4          6           0       -1.773221    2.398316   -0.369641
      5          7           0       -0.620343    3.069463   -0.367625
      6          6           0       -0.608674    4.276710    0.203141
      7          6           0       -4.196709    2.072484    0.154452
      8          6           0       -5.469603    2.642670    0.137545
      9          6           0       -6.541571    1.756772    0.125681
     10          7           0       -6.401481    0.437625    0.121999
     11          6           0       -5.129361   -0.007479    0.118992
     12          7           0       -4.029225    0.746424    0.138082
     13          7           0       -5.020195   -1.374118    0.118137
     14          6           0       -3.876880   -2.190310    0.165543
     15          6           0       -4.000437   -3.468199    0.740896
     16          6           0       -2.861098   -4.267787    0.786981
     17          6           0       -1.634606   -3.833521    0.302629
     18          6           0       -1.534196   -2.565444   -0.270286
     19          6           0       -2.662791   -1.754453   -0.361308
     20          7           0       -0.261287   -2.128271   -0.697645
     21          6           0        0.046422   -0.991369   -1.400493
     22          6           0        1.511740   -0.694450   -1.507835
     23          6           0        2.482909   -1.684215   -1.672007
     24          6           0        3.825723   -1.335844   -1.762626
     25          6           0        4.226975   -0.002086   -1.671266
     26          6           0        3.242275    0.979872   -1.538216
     27          6           0        1.896117    0.647821   -1.461182
     28          6           0        5.701344    0.374338   -1.684578
     29          7           0        6.410891    0.398388   -0.416155
     30          6           0        6.721352   -0.880861    0.210464
     31          6           0        5.672253   -1.347015    1.233998
     32          7           0        5.360223   -0.330881    2.234996
     33          6           0        6.395263   -0.157142    3.238535
     34          6           0        4.964668    0.909006    1.571473
     35          6           0        6.005703    1.408386    0.555115
     36          8           0       -0.787604   -0.240916   -1.883364
     37          6           0       -5.312665   -3.952816    1.301376
     38          1           0       -1.660096    5.845237    1.238929
     39          1           0       -3.811127    4.576779    1.238956
     40          1           0       -1.754657    1.423264   -0.846417
     41          1           0        0.346095    4.798247    0.198836
     42          1           0       -5.626089    3.713807    0.106931
     43          1           0       -7.565042    2.126992    0.114667
     44          1           0       -5.918872   -1.826924    0.191489
     45          1           0       -2.933631   -5.257158    1.230977
     46          1           0       -0.762226   -4.478390    0.370932
     47          1           0       -2.590491   -0.785269   -0.820290
     48          1           0        0.518858   -2.621945   -0.289983
     49          1           0        2.194914   -2.728402   -1.770944
     50          1           0        4.574060   -2.112274   -1.905242
     51          1           0        3.535391    2.026130   -1.487363
     52          1           0        1.137152    1.418674   -1.345600
     53          1           0        6.240561   -0.318695   -2.342114
     54          1           0        5.802634    1.371563   -2.131476
     55          1           0        6.851464   -1.637077   -0.572402
     56          1           0        7.693507   -0.780889    0.716156
     57          1           0        6.023585   -2.251997    1.744843
     58          1           0        4.738867   -1.598688    0.717000
     59          1           0        7.368366    0.204246    2.861694
     60          1           0        6.569067   -1.114983    3.741045
     61          1           0        6.045538    0.557903    3.991170
     62          1           0        4.788059    1.676473    2.334863
     63          1           0        4.010963    0.725264    1.063222
     64          1           0        6.905814    1.740008    1.094078
     65          1           0        5.621100    2.282740    0.018293
     66          1           0       -6.078321   -4.071482    0.522316
     67          1           0       -5.710937   -3.259367    2.052193
     68          1           0       -5.191501   -4.927537    1.781145
 ---------------------------------------------------------------------

 The electronic state is 1-A.
 Alpha  occ. eigenvalues --  -19.23798 -14.48998 -14.48184 -14.44902 -14.44775
 Alpha  occ. eigenvalues --  -14.44543 -14.43579 -14.43075 -10.40609 -10.40571
 Alpha  occ. eigenvalues --  -10.36234 -10.35121 -10.34262 -10.34110 -10.33600
 Alpha  occ. eigenvalues --  -10.32646 -10.32472 -10.32414 -10.31744 -10.31313
 Alpha  occ. eigenvalues --  -10.31305 -10.31184 -10.31181 -10.31153 -10.30852
 Alpha  occ. eigenvalues --  -10.30691 -10.30595 -10.30560 -10.30548 -10.30499
 Alpha  occ. eigenvalues --  -10.30389 -10.30101 -10.29940 -10.29931 -10.29899
 Alpha  occ. eigenvalues --  -10.29566 -10.28182  -1.14037  -1.11075  -1.04444
 Alpha  occ. eigenvalues --   -1.04030  -1.03816  -1.03272  -0.99532  -0.99409
 Alpha  occ. eigenvalues --   -0.96209  -0.94575  -0.91625  -0.88679  -0.87862
 Alpha  occ. eigenvalues --   -0.86342  -0.85867  -0.85377  -0.84676  -0.83474
 Alpha  occ. eigenvalues --   -0.81898  -0.79452  -0.77752  -0.76757  -0.75726
 Alpha  occ. eigenvalues --   -0.73235  -0.72896  -0.72292  -0.71394  -0.70554
 Alpha  occ. eigenvalues --   -0.70160  -0.69406  -0.67957  -0.66277  -0.64661
 Alpha  occ. eigenvalues --   -0.63634  -0.63171  -0.61707  -0.60643  -0.59473
 Alpha  occ. eigenvalues --   -0.58108  -0.57652  -0.56715  -0.56111  -0.55893
 Alpha  occ. eigenvalues --   -0.55315  -0.54974  -0.54742  -0.54260  -0.53967
 Alpha  occ. eigenvalues --   -0.53803  -0.53334  -0.52985  -0.52616  -0.52039
 Alpha  occ. eigenvalues --   -0.51202  -0.51032  -0.50743  -0.50413  -0.50288
 Alpha  occ. eigenvalues --   -0.49957  -0.49413  -0.48857  -0.48705  -0.48319
 Alpha  occ. eigenvalues --   -0.47493  -0.46710  -0.46315  -0.46107  -0.45438
 Alpha  occ. eigenvalues --   -0.45126  -0.44754  -0.44421  -0.44158  -0.43993
 Alpha  occ. eigenvalues --   -0.43400  -0.42426  -0.42187  -0.41468  -0.40925
 Alpha  occ. eigenvalues --   -0.40858  -0.40361  -0.39185  -0.37633  -0.36250
 Alpha  occ. eigenvalues --   -0.34512  -0.33929  -0.33802  -0.33058  -0.32477
 Alpha  occ. eigenvalues --   -0.32255  -0.31858  -0.30778  -0.29100  -0.27004
 Alpha  occ. eigenvalues --   -0.24953
 Alpha virt. eigenvalues --    0.01311   0.03275   0.04736   0.05564   0.06301
 Alpha virt. eigenvalues --    0.08159   0.08470   0.10661   0.13891   0.15543
 Alpha virt. eigenvalues --    0.16512   0.17075   0.17593   0.18030   0.19012

 Mulliken atomic charges:
              1
     1  C   -0.204828
     2  C   -0.155508
     3  C    0.033039
     4  C    0.005379
     5  N   -0.445802
     6  C    0.036842
     7  C    0.273997
     8  C   -0.250669
     9  C    0.047372
    10  N   -0.497217
    11  C    0.696895
    12  N   -0.540273
    13  N   -0.792578
    14  C    0.277628
    15  C    0.122963
    16  C   -0.230835
    17  C   -0.223694
    18  C    0.327409
    19  C   -0.188745
    20  N   -0.760394
    21  C    0.589450
    22  C    0.013419
    23  C   -0.207801
    24  C   -0.220794
    25  C    0.160338
    26  C   -0.235923
    27  C   -0.174620
    28  C   -0.263885
    29  N   -0.381287
    30  C   -0.183972
    31  C   -0.180966
    32  N   -0.385401
    33  C   -0.349596
    34  C   -0.183012
    35  C   -0.186174
    36  O   -0.512266
    37  C   -0.601381
    38  H    0.178216
    39  H    0.179930
    40  H    0.244838
    41  H    0.173727
    42  H    0.177910
    43  H    0.184191
    44  H    0.364600
    45  H    0.158482
    46  H    0.156036
    47  H    0.241571
    48  H    0.357084
    49  H    0.169308
    50  H    0.162280
    51  H    0.165832
    52  H    0.234177
    53  H    0.168867
    54  H    0.170954
    55  H    0.150613
    56  H    0.159887
    57  H    0.151104
    58  H    0.163893
    59  H    0.135514
    60  H    0.166037
    61  H    0.167449
    62  H    0.153120
    63  H    0.173435
    64  H    0.159435
    65  H    0.154364
    66  H    0.177762
    67  H    0.187477
    68  H    0.184795
 Sum of Mulliken atomic charges =   0.00000

 Dipole moment (field-independent basis, Debye):
    X=              0.3898    Y=              0.1546    Z=              2.4117  Tot=              2.4478
 Quadrupole moment (field-independent basis, Debye-Ang):
   XX=           -193.4201   YY=           -178.7134   ZZ=           -223.0277
   XY=             -9.9393   XZ=             -6.5112   YZ=              4.0181

 Normal termination of Gaussian 09 at Thu Apr  9 00:12:31 2020.
