                               Psi4 1.3.2 release

  ==> Input File <==

--------------------------------------------------------------------------
molecule {
0 1
 C    0.318838    4.673251   -1.813869
 C    1.644712    4.540578   -1.379567
 C    2.179572    3.260350   -1.137176
 C    1.309932    2.170510   -1.388909
 N    0.041977    2.276360   -1.806914
 C   -0.439504    3.512942   -2.007649
 C    3.589557    3.015109   -0.660965
 C    4.592130    3.992166   -0.547339
 C    5.847288    3.532377   -0.129960
 N    6.123043    2.263545    0.165210
 C    5.096597    1.397154    0.048961
 N    3.868298    1.737671   -0.343963
 N    5.386133    0.082432    0.370383
 C    4.621975   -1.139772    0.315064
 C    5.295901   -2.397375    0.372836
 C    4.507553   -3.556579    0.273716
 C    3.114596   -3.546911    0.133770
 C    2.460097   -2.310852    0.124349
 C    3.225167   -1.136911    0.208913
 N    1.047620   -2.112149    0.003554
 C    0.019089   -2.983408   -0.273577
 C   -1.327452   -2.360738   -0.593005
 C   -1.472232   -1.157045   -1.304220
 C   -2.736864   -0.596687   -1.495892
 C   -3.901192   -1.227633   -1.017807
 C   -3.745367   -2.462240   -0.357671
 C   -2.483867   -3.028724   -0.158165
 C   -5.272305   -0.560816   -1.158590
 N   -5.717400    0.451813   -0.178200
 C   -4.737129    1.069558    0.745398
 C   -4.573461    0.297232    2.080912
 N   -5.848283    0.042976    2.798083
 C   -6.342325    1.129789    3.651888
 C   -6.829268   -0.556484    1.859216
 C   -6.995279    0.229491    0.534111
 O    0.155716   -4.196648   -0.251184
 C    6.803973   -2.528707    0.503867
 H   -0.116737    5.650660   -1.999002
 H    2.232708    5.441218   -1.220537
 H    1.661272    1.150092   -1.272357
 H   -1.473615    3.563278   -2.345454
 H    4.458145    5.040152   -0.785593
 H    6.698621    4.204360   -0.024342
 H    6.363564    0.004352    0.607426
 H    4.993912   -4.530869    0.297498
 H    2.543836   -4.463393    0.048952
 H    2.722251   -0.184383    0.207774
 H    0.762880   -1.144633    0.064999
 H   -0.592095   -0.638652   -1.677585
 H   -2.807909    0.363241   -2.007451
 H   -4.619583   -2.984823    0.029789
 H   -2.375792   -3.977925    0.361023
 H   -5.324358   -0.073212   -2.142302
 H   -6.020554   -1.365644   -1.149557
 H   -3.802909    1.221064    0.258913
 H   -5.245886    2.430432    1.080568
 H   -3.743335    0.979523    2.900369
 H   -3.999124   -0.908067    1.843739
 H   -6.613916    2.006287    3.052578
 H   -5.573883    1.420820    4.377440
 H   -7.223764    0.798723    4.213281
 H   -7.908373   -0.679718    2.427531
 H   -6.341966   -1.905051    1.538152
 H   -7.563530    1.499146    0.825312
 H   -7.891690   -0.420451   -0.299403
 H    7.190073   -2.075639    1.428078
 H    7.315455   -2.042720   -0.331761
 H    7.137576   -3.569601    0.510996
}
memory 20GB
set_num_threads(6)
psi4_io.set_default_path("/scratch/bdw2292")
set freeze_core True
E, wfn = energy('mp2/6-311++G**',return_wfn=True)
oeprop(wfn,"WIBERG_LOWDIN_INDICES")
clean()
--------------------------------------------------------------------------

    Molecular point group: c1

    Geometry (in Angstrom), charge = 0, multiplicity = 1:

       Center              X                  Y                   Z               Mass
    ------------   -----------------  -----------------  -----------------  -----------------
         C            0.154745502083     4.633984978854    -1.745237689936    12.000000000000
         C            1.480619502083     4.501311978854    -1.310935689936    12.000000000000
         C            2.015479502083     3.221083978854    -1.068544689936    12.000000000000
         C            1.145839502083     2.131243978854    -1.320277689936    12.000000000000
         N           -0.122115497917     2.237093978854    -1.738282689936    14.003074004430
         C           -0.603596497917     3.473675978854    -1.939017689936    12.000000000000
         C            3.425464502083     2.975842978854    -0.592333689936    12.000000000000
         C            4.428037502083     3.952899978854    -0.478707689936    12.000000000000
         C            5.683195502083     3.493110978854    -0.061328689936    12.000000000000
         N            5.958950502083     2.224278978854     0.233841310064    14.003074004430
         C            4.932504502083     1.357887978854     0.117592310064    12.000000000000
         N            3.704205502083     1.698404978854    -0.275331689936    14.003074004430
         N            5.222040502083     0.043165978854     0.439014310064    14.003074004430
         C            4.457882502083    -1.179038021146     0.383695310064    12.000000000000
         C            5.131808502083    -2.436641021146     0.441467310064    12.000000000000
         C            4.343460502083    -3.595845021146     0.342347310064    12.000000000000
         C            2.950503502083    -3.586177021146     0.202401310064    12.000000000000
         C            2.296004502083    -2.350118021146     0.192980310064    12.000000000000
         C            3.061074502083    -1.176177021146     0.277544310064    12.000000000000
         N            0.883527502083    -2.151415021146     0.072185310064    14.003074004430
         C           -0.145003497917    -3.022674021146    -0.204945689936    12.000000000000
         C           -1.491544497917    -2.400004021146    -0.524373689936    12.000000000000
         C           -1.636324497917    -1.196311021146    -1.235588689936    12.000000000000
         C           -2.900956497917    -0.635953021146    -1.427260689936    12.000000000000
         C           -4.065284497917    -1.266899021146    -0.949175689936    12.000000000000
         C           -3.909459497917    -2.501506021146    -0.289039689936    12.000000000000
         C           -2.647959497917    -3.067990021146    -0.089533689936    12.000000000000
         C           -5.436397497917    -0.600082021146    -1.089958689936    12.000000000000
         N           -5.881492497917     0.412546978854    -0.109568689936    14.003074004430
         C           -4.901221497917     1.030291978854     0.814029310064    12.000000000000
         C           -4.737553497917     0.257965978854     2.149543310064    12.000000000000
         N           -6.012375497917     0.003709978854     2.866714310064    14.003074004430
         C           -6.506417497917     1.090522978854     3.720519310064    12.000000000000
         C           -6.993360497917    -0.595750021146     1.927847310064    12.000000000000
         C           -7.159371497917     0.190224978854     0.602742310064    12.000000000000
         O           -0.008376497917    -4.235914021146    -0.182552689936    15.994914619570
         C            6.639880502083    -2.567973021146     0.572498310064    12.000000000000
         H           -0.280829497917     5.611393978854    -1.930370689936     1.007825032230
         H            2.068615502083     5.401951978854    -1.151905689936     1.007825032230
         H            1.497179502083     1.110825978854    -1.203725689936     1.007825032230
         H           -1.637707497917     3.524011978854    -2.276822689936     1.007825032230
         H            4.294052502083     5.000885978854    -0.716961689936     1.007825032230
         H            6.534528502083     4.165093978854     0.044289310064     1.007825032230
         H            6.199471502083    -0.034914021146     0.676057310064     1.007825032230
         H            4.829819502083    -4.570135021146     0.366129310064     1.007825032230
         H            2.379743502083    -4.502659021146     0.117583310064     1.007825032230
         H            2.558158502083    -0.223649021146     0.276405310064     1.007825032230
         H            0.598787502083    -1.183899021146     0.133630310064     1.007825032230
         H           -0.756187497917    -0.677918021146    -1.608953689936     1.007825032230
         H           -2.972001497917     0.323974978854    -1.938819689936     1.007825032230
         H           -4.783675497917    -3.024089021146     0.098420310064     1.007825032230
         H           -2.539884497917    -4.017191021146     0.429654310064     1.007825032230
         H           -5.488450497917    -0.112478021146    -2.073670689936     1.007825032230
         H           -6.184646497917    -1.404910021146    -1.080925689936     1.007825032230
         H           -3.967001497917     1.181797978854     0.327544310064     1.007825032230
         H           -5.409978497917     2.391165978854     1.149199310064     1.007825032230
         H           -3.907427497917     0.940256978854     2.969000310064     1.007825032230
         H           -4.163216497917    -0.947333021146     1.912370310064     1.007825032230
         H           -6.778008497917     1.967020978854     3.121209310064     1.007825032230
         H           -5.737975497917     1.381553978854     4.446071310064     1.007825032230
         H           -7.387856497917     0.759456978854     4.281912310064     1.007825032230
         H           -8.072465497917    -0.718984021146     2.496162310064     1.007825032230
         H           -6.506058497917    -1.944317021146     1.606783310064     1.007825032230
         H           -7.727622497917     1.459879978854     0.893943310064     1.007825032230
         H           -8.055782497917    -0.459717021146    -0.230771689936     1.007825032230
         H            7.025980502083    -2.114905021146     1.496709310064     1.007825032230
         H            7.151362502083    -2.081986021146    -0.263129689936     1.007825032230
         H            6.973483502083    -3.608867021146     0.579627310064     1.007825032230

  Charge       = 0
  Multiplicity = 1
  Basis Set: 6-311++G**
    Blend: 6-311++G**
  Basis Set: (6-311++G** AUX)
    Blend: AUG-CC-PVTZ-JKFIT

    Orbital Energies [Eh]
    ---------------------

    Doubly Occupied:

       1A    -20.522523     2A    -15.604503     3A    -15.602112
       4A    -15.587339     5A    -15.573990     6A    -15.568912
       7A    -15.563480     8A    -15.558724     9A    -11.374949
      10A    -11.364956    11A    -11.334979    12A    -11.325073
      13A    -11.314335    14A    -11.313281    15A    -11.307196
      16A    -11.302248    17A    -11.301609    18A    -11.300914
      19A    -11.297272    20A    -11.293219    21A    -11.289938
      22A    -11.280888    23A    -11.273440    24A    -11.266207
      25A    -11.259856    26A    -11.257832    27A    -11.253509
      28A    -11.253063    29A    -11.249805    30A    -11.249287
      31A    -11.247551    32A    -11.246344    33A    -11.245865
      34A    -11.240258    35A    -11.234205    36A    -11.231332
      37A    -11.225355    38A     -1.386811    39A     -1.345716
      40A     -1.278843    41A     -1.251849    42A     -1.244082
      43A     -1.242306    44A     -1.210080    45A     -1.198740
      46A     -1.161818    47A     -1.140180    48A     -1.116470
      49A     -1.075747    50A     -1.059794    51A     -1.048700
      52A     -1.037883    53A     -1.023383    54A     -1.008347
      55A     -0.993291    56A     -0.974925    57A     -0.947382
      58A     -0.927816    59A     -0.926927    60A     -0.901369
      61A     -0.873203    62A     -0.867140    63A     -0.858576
      64A     -0.842968    65A     -0.835494    66A     -0.826255
      67A     -0.821713    68A     -0.804338    69A     -0.778358
      70A     -0.754903    71A     -0.739062    72A     -0.731250
      73A     -0.722339    74A     -0.701138    75A     -0.695570
      76A     -0.683073    77A     -0.671283    78A     -0.665363
      79A     -0.659433    80A     -0.656805    81A     -0.652385
      82A     -0.639903    83A     -0.637894    84A     -0.629755
      85A     -0.622159    86A     -0.616998    87A     -0.613705
      88A     -0.607119    89A     -0.605326    90A     -0.602991
      91A     -0.598957    92A     -0.596334    93A     -0.594199
      94A     -0.591473    95A     -0.588453    96A     -0.582703
      97A     -0.580684    98A     -0.573125    99A     -0.563408
     100A     -0.561950   101A     -0.548275   102A     -0.544941
     103A     -0.539403   104A     -0.524325   105A     -0.519776
     106A     -0.514680   107A     -0.513322   108A     -0.509139
     109A     -0.504896   110A     -0.502413   111A     -0.500678
     112A     -0.490304   113A     -0.484851   114A     -0.480864
     115A     -0.456892   116A     -0.452218   117A     -0.443286
     118A     -0.431512   119A     -0.427865   120A     -0.425959
     121A     -0.414610   122A     -0.408685   123A     -0.400758
     124A     -0.381096   125A     -0.374181   126A     -0.346775
     127A     -0.345681   128A     -0.341333   129A     -0.315661
     130A     -0.313995   131A     -0.290576

  @DF-RHF Final Energy: -1572.32936378139470

   => Energetics <=

    Nuclear Repulsion Energy =           3715.8084173281704352
    One-Electron Energy =               -9529.8445008527251048
    Two-Electron Energy =                4241.7067197431597378
    Total Energy =                      -1572.3293637813949317

  Dipole Moment: [D]
     X:     1.0197      Y:     7.1950      Z:    -0.4171     Total:     7.2789

  Basis Set: (6-311++G** AUX)
    Blend: AUG-CC-PVTZ-RI
	 Reference Energy          =   -1572.3293637813947043 [Eh]
	 Singles Energy            =      -0.0000000000000000 [Eh]
	 Same-Spin Energy          =      -1.4702795673815865 [Eh]
	 Opposite-Spin Energy      =      -4.0482939071875386 [Eh]
	 Correlation Energy        =      -5.5185734745691253 [Eh]
	 Total Energy              =   -1577.8479372559638705 [Eh]

	 ================> DF-SCS-MP2 Energies <==================
	-----------------------------------------------------------
	 SCS Same-Spin Scale       =       0.3333333333333333 [-]
	 SCS Opposite-Spin Scale   =       1.2000000000000000 [-]
	 SCS Same-Spin Energy      =      -0.4900931891271955 [Eh]
	 SCS Opposite-Spin Energy  =      -4.8579526886250459 [Eh]
	 SCS Correlation Energy    =      -5.3480458777522415 [Eh]
	 SCS Total Energy          =   -1577.6774096591468606 [Eh]
	-----------------------------------------------------------

*** Psi4 exiting successfully. Buy a developer a beer!
