 Gaussian 09, Revision A.02,
 Gaussian 09:  EM64L-G09RevA.02 11-Jun-2009

 --------------------------------------------------
 #P opt=(,maxcycle=400) wB97XD/6-31G* MaxDisk=100GB
 --------------------------------------------------

 -----------------------------------------------------------------
 MOLECULE0 Rotatable Bond Optimization on g2-node38.bme.utexas.edu
 -----------------------------------------------------------------
 Symbolic Z-matrix:
 Charge =  0 Multiplicity = 1

 SCF Done:  E(RwB97XD) =  -1581.47431095     A.U. after   16 cycles
 SCF Done:  E(RwB97XD) =  -1581.54293835     A.U. after   13 cycles
 SCF Done:  E(RwB97XD) =  -1581.65415504     A.U. after   14 cycles
 SCF Done:  E(RwB97XD) =  -1581.70545240     A.U. after   14 cycles
 SCF Done:  E(RwB97XD) =  -1581.72278620     A.U. after   17 cycles
 SCF Done:  E(RwB97XD) =  -1581.71775323     A.U. after   15 cycles
 SCF Done:  E(RwB97XD) =  -1581.73754448     A.U. after   14 cycles
 SCF Done:  E(RwB97XD) =  -1581.74962258     A.U. after   14 cycles
 SCF Done:  E(RwB97XD) =  -1581.75386785     A.U. after   14 cycles
 SCF Done:  E(RwB97XD) =  -1581.75544343     A.U. after   14 cycles
 SCF Done:  E(RwB97XD) =  -1581.76402852     A.U. after   14 cycles
 SCF Done:  E(RwB97XD) =  -1581.76423654     A.U. after   14 cycles
 SCF Done:  E(RwB97XD) =  -1581.76427057     A.U. after   12 cycles
 SCF Done:  E(RwB97XD) =  -1581.76428071     A.U. after   12 cycles
 SCF Done:  E(RwB97XD) =  -1581.76428433     A.U. after   11 cycles
 SCF Done:  E(RwB97XD) =  -1581.76428399     A.U. after   11 cycles
 SCF Done:  E(RwB97XD) =  -1581.76428408     A.U. after    8 cycles
 SCF Done:  E(RwB97XD) =  -1581.76428506     A.U. after    7 cycles
 SCF Done:  E(RwB97XD) =  -1581.76428531     A.U. after    7 cycles
 SCF Done:  E(RwB97XD) =  -1581.76428542     A.U. after    7 cycles
 Optimization completed.
    -- Stationary point found.

                         Standard orientation:
 ---------------------------------------------------------------------
 Center     Atomic      Atomic             Coordinates (Angstroms)
 Number     Number       Type             X           Y           Z
 ---------------------------------------------------------------------
      1          6           0        0.100059    4.430631   -0.567332
      2          6           0        1.450843    4.329364   -0.257469
      3          6           0        2.096278    3.107472   -0.439454
      4          6           0        1.333915    2.044429   -0.942054
      5          7           0        0.037213    2.124176   -1.233410
      6          6           0       -0.562467    3.302982   -1.040880
      7          6           0        3.520252    2.879483   -0.088366
      8          6           0        4.472197    3.890640    0.010149
      9          6           0        5.755185    3.489753    0.380407
     10          7           0        6.096242    2.230115    0.616994
     11          6           0        5.104559    1.328204    0.471113
     12          7           0        3.843299    1.604991    0.143666
     13          7           0        5.471575    0.029211    0.692377
     14          6           0        4.739139   -1.159267    0.507151
     15          6           0        5.453896   -2.364603    0.359607
     16          6           0        4.719847   -3.529078    0.154372
     17          6           0        3.329672   -3.552392    0.071211
     18          6           0        2.644196   -2.349796    0.225096
     19          6           0        3.348870   -1.170644    0.470792
     20          7           0        1.248688   -2.207798    0.128296
     21          6           0        0.305628   -3.128523   -0.250614
     22          6           0       -1.068020   -2.549502   -0.440216
     23          6           0       -1.295558   -1.221515   -0.817840
     24          6           0       -2.590680   -0.747945   -0.974911
     25          6           0       -3.686150   -1.584674   -0.756215
     26          6           0       -3.454773   -2.911230   -0.390756
     27          6           0       -2.160150   -3.395026   -0.246714
     28          6           0       -5.095847   -1.066668   -0.949208
     29          7           0       -5.253398    0.294269   -0.453377
     30          6           0       -5.128886    0.412501    1.002269
     31          6           0       -6.381282   -0.067647    1.749952
     32          7           0       -7.610711    0.579611    1.293767
     33          6           0       -7.768353    1.937000    1.784856
     34          6           0       -7.731525    0.463953   -0.158061
     35          6           0       -6.480307    0.947552   -0.907497
     36          8           0        0.536651   -4.316804   -0.407272
     37          6           0        6.960522   -2.393447    0.405857
     38          1           0       -0.435498    5.363811   -0.429525
     39          1           0        1.984249    5.184657    0.147332
     40          1           0        1.813484    1.085032   -1.116561
     41          1           0       -1.623943    3.342935   -1.273947
     42          1           0        4.250085    4.929783   -0.198419
     43          1           0        6.550351    4.225012    0.486895
     44          1           0        6.457085   -0.063356    0.888289
     45          1           0        5.258858   -4.465833    0.037094
     46          1           0        2.790563   -4.470805   -0.112904
     47          1           0        2.814085   -0.241637    0.601093
     48          1           0        0.906938   -1.276835    0.314158
     49          1           0       -0.479239   -0.536280   -1.032616
     50          1           0       -2.759242    0.285692   -1.259322
     51          1           0       -4.298108   -3.574986   -0.214622
     52          1           0       -1.976704   -4.429595    0.024535
     53          1           0       -5.315614   -1.043129   -2.024764
     54          1           0       -5.803858   -1.792241   -0.510208
     55          1           0       -4.246273   -0.146279    1.329536
     56          1           0       -4.941195    1.469725    1.231785
     57          1           0       -6.269185    0.101955    2.826845
     58          1           0       -6.502142   -1.150349    1.609455
     59          1           0       -7.001414    2.656637    1.446829
     60          1           0       -7.751487    1.925095    2.879962
     61          1           0       -8.744518    2.321197    1.469671
     62          1           0       -8.615291    1.023438   -0.486182
     63          1           0       -7.914799   -0.593106   -0.394825
     64          1           0       -6.354897    2.028149   -0.756333
     65          1           0       -6.592207    0.785921   -1.985833
     66          1           0        7.353601   -2.068543    1.379088
     67          1           0        7.404939   -1.748509   -0.363124
     68          1           0        7.331467   -3.407175    0.235155
 ---------------------------------------------------------------------

 The electronic state is 1-A.
 Alpha  occ. eigenvalues --  -19.23141 -14.49088 -14.48249 -14.46430 -14.45934
 Alpha  occ. eigenvalues --  -14.45554 -14.44102 -14.43655 -10.41589 -10.39893
 Alpha  occ. eigenvalues --  -10.37440 -10.36189 -10.34998 -10.34761 -10.34485
 Alpha  occ. eigenvalues --  -10.33945 -10.33923 -10.33369 -10.32607 -10.32385
 Alpha  occ. eigenvalues --  -10.31700 -10.31600 -10.31417 -10.31278 -10.31179
 Alpha  occ. eigenvalues --  -10.31107 -10.30685 -10.30535 -10.30245 -10.30152
 Alpha  occ. eigenvalues --  -10.29925 -10.29873 -10.29806 -10.29418 -10.29301
 Alpha  occ. eigenvalues --  -10.28760 -10.28207  -1.13267  -1.12141  -1.06043
 Alpha  occ. eigenvalues --   -1.04470  -1.04387  -1.03398  -1.00553  -1.00018
 Alpha  occ. eigenvalues --   -0.95689  -0.94520  -0.92873  -0.89563  -0.87952
 Alpha  occ. eigenvalues --   -0.87191  -0.86212  -0.85604  -0.84127  -0.83620
 Alpha  occ. eigenvalues --   -0.81645  -0.79635  -0.78096  -0.77977  -0.76153
 Alpha  occ. eigenvalues --   -0.73638  -0.73527  -0.72817  -0.72488  -0.70963
 Alpha  occ. eigenvalues --   -0.69939  -0.69635  -0.67834  -0.66216  -0.64977
 Alpha  occ. eigenvalues --   -0.63774  -0.63199  -0.61958  -0.61584  -0.59869
 Alpha  occ. eigenvalues --   -0.58660  -0.58473  -0.57426  -0.56519  -0.55949
 Alpha  occ. eigenvalues --   -0.55693  -0.55463  -0.55032  -0.54956  -0.54325
 Alpha  occ. eigenvalues --   -0.53736  -0.53606  -0.52981  -0.52468  -0.51999
 Alpha  occ. eigenvalues --   -0.51530  -0.51388  -0.51068  -0.50969  -0.50440
 Alpha  occ. eigenvalues --   -0.50263  -0.49886  -0.49565  -0.49366  -0.47997
 Alpha  occ. eigenvalues --   -0.47838  -0.47128  -0.46879  -0.46466  -0.46050
 Alpha  occ. eigenvalues --   -0.45873  -0.45630  -0.44381  -0.43794  -0.43288
 Alpha  occ. eigenvalues --   -0.43210  -0.42640  -0.42006  -0.41949  -0.41510
 Alpha  occ. eigenvalues --   -0.41213  -0.40757  -0.39820  -0.38005  -0.37401
 Alpha  occ. eigenvalues --   -0.35506  -0.35075  -0.33814  -0.33285  -0.33130
 Alpha  occ. eigenvalues --   -0.32461  -0.32292  -0.31030  -0.28993  -0.26964
 Alpha  occ. eigenvalues --   -0.25780
 Alpha virt. eigenvalues --   -0.00142   0.03120   0.03718   0.04761   0.07061
 Alpha virt. eigenvalues --    0.07524   0.08522   0.10521   0.14996   0.15191
 Alpha virt. eigenvalues --    0.15560   0.16397   0.17339   0.17525   0.18783

 Mulliken atomic charges:
              1
     1  C   -0.199123
     2  C   -0.155377
     3  C    0.033476
     4  C    0.007519
     5  N   -0.433877
     6  C    0.030960
     7  C    0.296755
     8  C   -0.254348
     9  C    0.048131
    10  N   -0.492587
    11  C    0.708692
    12  N   -0.567675
    13  N   -0.796293
    14  C    0.288216
    15  C    0.120603
    16  C   -0.240210
    17  C   -0.190693
    18  C    0.356101
    19  C   -0.265324
    20  N   -0.766417
    21  C    0.596860
    22  C    0.018247
    23  C   -0.214573
    24  C   -0.199819
    25  C    0.113505
    26  C   -0.222871
    27  C   -0.181346
    28  C   -0.219860
    29  N   -0.402533
    30  C   -0.192321
    31  C   -0.187530
    32  N   -0.384165
    33  C   -0.349858
    34  C   -0.187274
    35  C   -0.184790
    36  O   -0.517563
    37  C   -0.607055
    38  H    0.185023
    39  H    0.184992
    40  H    0.200672
    41  H    0.186590
    42  H    0.179893
    43  H    0.188686
    44  H    0.368475
    45  H    0.160397
    46  H    0.215725
    47  H    0.194165
    48  H    0.359394
    49  H    0.187558
    50  H    0.185481
    51  H    0.162913
    52  H    0.195711
    53  H    0.179152
    54  H    0.139766
    55  H    0.175439
    56  H    0.158567
    57  H    0.160229
    58  H    0.162568
    59  H    0.133388
    60  H    0.169600
    61  H    0.168551
    62  H    0.158642
    63  H    0.163067
    64  H    0.159950
    65  H    0.159192
    66  H    0.177228
    67  H    0.183294
    68  H    0.190107
 Sum of Mulliken atomic charges =   0.00000

 Dipole moment (field-independent basis, Debye):
    X=              0.0158    Y=              6.8612    Z=              0.7349  Tot=              6.9005
 Quadrupole moment (field-independent basis, Debye-Ang):
   XX=           -190.9239   YY=           -200.8625   ZZ=           -219.8829
   XY=              1.9781   XZ=              4.7784   YZ=             -1.9347

 Normal termination of Gaussian 09 at Wed Mar 11 01:27:33 2020.
