                               Psi4 1.3.2 release

  ==> Input File <==

--------------------------------------------------------------------------
molecule {
0 1
 C   -8.489986   -3.688797   -0.103926
 C   -7.173566   -3.302984   -0.386919
 C   -6.750454   -1.985933   -0.117075
 C   -7.727209   -1.126351    0.443161
 N   -8.989625   -1.478957    0.720102
 C   -9.356615   -2.739840    0.447800
 C   -5.354651   -1.485126   -0.392232
 C   -4.319517   -2.264614   -0.936055
 C   -3.093440   -1.616146   -1.113080
 N   -2.869293   -0.342204   -0.803266
 C   -3.918019    0.335805   -0.293464
 N   -5.125486   -0.192978   -0.084250
 N   -3.718959    1.665801    0.029485
 C   -2.575078    2.543924    0.126939
 C   -2.793724    3.918879    0.453023
 C   -1.666617    4.751406    0.539408
 C   -0.355428    4.312824    0.332068
 C   -0.147942    2.964147    0.023856
 C   -1.258429    2.108474   -0.077964
 N    1.131261    2.364110   -0.220483
 C    2.407537    2.859802   -0.078091
 C    3.562223    1.951137   -0.454876
 C    3.498279    0.983024   -1.470751
 C    4.597470    0.162036   -1.735347
 C    5.803524    0.293078   -1.020970
 C    5.868440    1.300153   -0.038686
 C    4.775336    2.126250    0.231641
 C    6.989143   -0.639406   -1.278282
 N    7.079298   -1.916018   -0.549249
 C    6.148367   -3.013318   -0.899205
 C    4.863292   -3.069647   -0.033102
 N    5.119711   -3.088204    1.427093
 C    5.459618   -4.387157    2.019382
 C    6.012719   -1.953993    1.768071
 C    7.306027   -1.887010    0.914266
 O    2.634787    3.980918    0.348789
 C   -4.168398    4.514577    0.710417
 H   -8.836730   -4.698021   -0.305680
 H   -6.501531   -4.041978   -0.816319
 H   -7.476264   -0.097111    0.682430
 H  -10.389358   -2.989139    0.686345
 H   -4.415031   -3.306579   -1.214693
 H   -2.224440   -2.129679   -1.523801
 H   -4.615095    2.094685    0.202998
 H   -1.801562    5.804732    0.782130
 H    0.485887    4.989167    0.416428
 H   -1.106769    1.068902   -0.323786
 H    1.082742    1.377334   -0.430808
 H    2.584336    0.875293   -2.049393
 H    4.506372   -0.602475   -2.506715
 H    6.782858    1.436379    0.537994
 H    4.841354    2.902636    0.990020
 H    7.010726   -0.883210   -2.349899
 H    7.913768   -0.086186   -1.060390
 H    5.888161   -2.980676   -2.037246
 H    6.883190   -4.286284   -0.679947
 H    4.144797   -4.162098   -0.360732
 H    4.109988   -2.019948   -0.280774
 H    6.419875   -4.752982    1.638323
 H    4.682576   -5.124326    1.786576
 H    5.522541   -4.300038    3.110213
 H    6.313722   -2.017948    3.030338
 H    5.267365   -0.777454    1.578533
 H    8.115966   -3.068863    1.246531
 H    7.954032   -0.950539    1.209825
 H   -4.714231    3.996719    1.511944
 H   -4.790054    4.467942   -0.187924
 H   -4.124036    5.566216    1.005091
}
memory 20GB
set_num_threads(6)
psi4_io.set_default_path("/scratch/bdw2292")
set freeze_core True
E, wfn = energy('mp2/6-311++G**',return_wfn=True)
oeprop(wfn,"WIBERG_LOWDIN_INDICES")
clean()
--------------------------------------------------------------------------

    Molecular point group: c1

    Geometry (in Angstrom), charge = 0, multiplicity = 1:

       Center              X                  Y                   Z               Mass
    ------------   -----------------  -----------------  -----------------  -----------------
         C           -8.401668125031    -3.742658079932    -0.079869149383    12.000000000000
         C           -7.085248125031    -3.356845079932    -0.362862149383    12.000000000000
         C           -6.662136125031    -2.039794079932    -0.093018149383    12.000000000000
         C           -7.638891125031    -1.180212079932     0.467217850617    12.000000000000
         N           -8.901307125031    -1.532818079932     0.744158850617    14.003074004430
         C           -9.268297125031    -2.793701079932     0.471856850617    12.000000000000
         C           -5.266333125031    -1.538987079932    -0.368175149383    12.000000000000
         C           -4.231199125031    -2.318475079932    -0.911998149383    12.000000000000
         C           -3.005122125031    -1.670007079932    -1.089023149383    12.000000000000
         N           -2.780975125031    -0.396065079932    -0.779209149383    14.003074004430
         C           -3.829701125031     0.281943920068    -0.269407149383    12.000000000000
         N           -5.037168125031    -0.246839079932    -0.060193149383    14.003074004430
         N           -3.630641125031     1.611939920068     0.053541850617    14.003074004430
         C           -2.486760125031     2.490062920068     0.150995850617    12.000000000000
         C           -2.705406125031     3.865017920068     0.477079850617    12.000000000000
         C           -1.578299125031     4.697544920068     0.563464850617    12.000000000000
         C           -0.267110125031     4.258962920068     0.356124850617    12.000000000000
         C           -0.059624125031     2.910285920068     0.047912850617    12.000000000000
         C           -1.170111125031     2.054612920068    -0.053907149383    12.000000000000
         N            1.219578874969     2.310248920068    -0.196426149383    14.003074004430
         C            2.495854874969     2.805940920068    -0.054034149383    12.000000000000
         C            3.650540874969     1.897275920068    -0.430819149383    12.000000000000
         C            3.586596874969     0.929162920068    -1.446694149383    12.000000000000
         C            4.685787874969     0.108174920068    -1.711290149383    12.000000000000
         C            5.891841874969     0.239216920068    -0.996913149383    12.000000000000
         C            5.956757874969     1.246291920068    -0.014629149383    12.000000000000
         C            4.863653874969     2.072388920068     0.255697850617    12.000000000000
         C            7.077460874969    -0.693267079932    -1.254225149383    12.000000000000
         N            7.167615874969    -1.969879079932    -0.525192149383    14.003074004430
         C            6.236684874969    -3.067179079932    -0.875148149383    12.000000000000
         C            4.951609874969    -3.123508079932    -0.009045149383    12.000000000000
         N            5.208028874969    -3.142065079932     1.451149850617    14.003074004430
         C            5.547935874969    -4.441018079932     2.043438850617    12.000000000000
         C            6.101036874969    -2.007854079932     1.792127850617    12.000000000000
         C            7.394344874969    -1.940871079932     0.938322850617    12.000000000000
         O            2.723104874969     3.927056920068     0.372845850617    15.994914619570
         C           -4.080080125031     4.460715920068     0.734473850617    12.000000000000
         H           -8.748412125031    -4.751882079932    -0.281623149383     1.007825032230
         H           -6.413213125031    -4.095839079932    -0.792262149383     1.007825032230
         H           -7.387946125031    -0.150972079932     0.706486850617     1.007825032230
         H          -10.301040125031    -3.043000079932     0.710401850617     1.007825032230
         H           -4.326713125031    -3.360440079932    -1.190636149383     1.007825032230
         H           -2.136122125031    -2.183540079932    -1.499744149383     1.007825032230
         H           -4.526777125031     2.040823920068     0.227054850617     1.007825032230
         H           -1.713244125031     5.750870920068     0.806186850617     1.007825032230
         H            0.574204874969     4.935305920068     0.440484850617     1.007825032230
         H           -1.018451125031     1.015040920068    -0.299729149383     1.007825032230
         H            1.171059874969     1.323472920068    -0.406751149383     1.007825032230
         H            2.672653874969     0.821431920068    -2.025336149383     1.007825032230
         H            4.594689874969    -0.656336079932    -2.482658149383     1.007825032230
         H            6.871175874969     1.382517920068     0.562050850617     1.007825032230
         H            4.929671874969     2.848774920068     1.014076850617     1.007825032230
         H            7.099043874969    -0.937071079932    -2.325842149383     1.007825032230
         H            8.002085874969    -0.140047079932    -1.036333149383     1.007825032230
         H            5.976478874969    -3.034537079932    -2.013189149383     1.007825032230
         H            6.971507874969    -4.340145079932    -0.655890149383     1.007825032230
         H            4.233114874969    -4.215959079932    -0.336675149383     1.007825032230
         H            4.198305874969    -2.073809079932    -0.256717149383     1.007825032230
         H            6.508192874969    -4.806843079932     1.662379850617     1.007825032230
         H            4.770893874969    -5.178187079932     1.810632850617     1.007825032230
         H            5.610858874969    -4.353899079932     3.134269850617     1.007825032230
         H            6.402039874969    -2.071809079932     3.054394850617     1.007825032230
         H            5.355682874969    -0.831315079932     1.602589850617     1.007825032230
         H            8.204283874969    -3.122724079932     1.270587850617     1.007825032230
         H            8.042349874969    -1.004400079932     1.233881850617     1.007825032230
         H           -4.625913125031     3.942857920068     1.536000850617     1.007825032230
         H           -4.701736125031     4.414080920068    -0.163867149383     1.007825032230
         H           -4.035718125031     5.512354920068     1.029147850617     1.007825032230

  Charge       = 0
  Multiplicity = 1
  Basis Set: 6-311++G**
    Blend: 6-311++G**
  Basis Set: (6-311++G** AUX)
    Blend: AUG-CC-PVTZ-JKFIT

    Orbital Energies [Eh]
    ---------------------

    Doubly Occupied:

       1A    -20.524751     2A    -15.605178     3A    -15.602506
       4A    -15.576744     5A    -15.572552     6A    -15.571078
       7A    -15.568135     8A    -15.558321     9A    -11.373591
      10A    -11.368624    11A    -11.333204    12A    -11.313125
      13A    -11.312300    14A    -11.311176    15A    -11.311171
      16A    -11.309813    17A    -11.303513    18A    -11.293192
      19A    -11.293176    20A    -11.291305    21A    -11.283153
      22A    -11.282206    23A    -11.273441    24A    -11.264348
      25A    -11.263207    26A    -11.263056    27A    -11.258363
      28A    -11.255194    29A    -11.254484    30A    -11.251373
      31A    -11.250145    32A    -11.248888    33A    -11.246827
      34A    -11.238755    35A    -11.233819    36A    -11.230723
      37A    -11.223883    38A     -1.390544    39A     -1.343081
      40A     -1.269365    41A     -1.251914    42A     -1.248477
      43A     -1.240573    44A     -1.207126    45A     -1.202824
      46A     -1.168245    47A     -1.140561    48A     -1.109809
      49A     -1.072306    50A     -1.063340    51A     -1.043151
      52A     -1.037686    53A     -1.030892    54A     -1.007375
      55A     -0.995156    56A     -0.980497    57A     -0.947891
      58A     -0.930898    59A     -0.920297    60A     -0.901400
      61A     -0.869115    62A     -0.865668    63A     -0.856251
      64A     -0.848112    65A     -0.834912    66A     -0.829176
      67A     -0.823526    68A     -0.807900    69A     -0.778240
      70A     -0.753194    71A     -0.738300    72A     -0.734020
      73A     -0.717569    74A     -0.704030    75A     -0.698847
      76A     -0.679214    77A     -0.674863    78A     -0.665612
      79A     -0.660682    80A     -0.652900    81A     -0.649745
      82A     -0.646144    83A     -0.638145    84A     -0.633064
      85A     -0.623280    86A     -0.618920    87A     -0.613551
      88A     -0.609102    89A     -0.607064    90A     -0.602306
      91A     -0.599828    92A     -0.593263    93A     -0.591851
      94A     -0.584861    95A     -0.583656    96A     -0.582318
      97A     -0.581370    98A     -0.578733    99A     -0.567557
     100A     -0.554090   101A     -0.548138   102A     -0.537490
     103A     -0.534058   104A     -0.530017   105A     -0.528505
     106A     -0.524292   107A     -0.514121   108A     -0.511980
     109A     -0.510273   110A     -0.508454   111A     -0.507892
     112A     -0.500612   113A     -0.482512   114A     -0.482027
     115A     -0.457037   116A     -0.448453   117A     -0.439071
     118A     -0.433237   119A     -0.431237   120A     -0.427546
     121A     -0.414081   122A     -0.410940   123A     -0.394508
     124A     -0.385880   125A     -0.371731   126A     -0.352268
     127A     -0.348189   128A     -0.339357   129A     -0.317949
     130A     -0.314209   131A     -0.288941

  @DF-RHF Final Energy: -1572.36105386212694

   => Energetics <=

    Nuclear Repulsion Energy =           3523.3116357080848502
    One-Electron Energy =               -9144.8159683850990405
    Two-Electron Energy =                4049.1432788148867985
    Total Energy =                      -1572.3610538621269370

  Dipole Moment: [D]
     X:    -0.6235      Y:    -5.6077      Z:    -2.2107     Total:     6.0599

  Basis Set: (6-311++G** AUX)
    Blend: AUG-CC-PVTZ-RI
	 Reference Energy          =   -1572.3610538621269370 [Eh]
	 Singles Energy            =      -0.0000000000000000 [Eh]
	 Same-Spin Energy          =      -1.4680297064147250 [Eh]
	 Opposite-Spin Energy      =      -4.0440256750131383 [Eh]
	 Correlation Energy        =      -5.5120553814278637 [Eh]
	 Total Energy              =   -1577.8731092435548362 [Eh]

	 ================> DF-SCS-MP2 Energies <==================
	-----------------------------------------------------------
	 SCS Same-Spin Scale       =       0.3333333333333333 [-]
	 SCS Opposite-Spin Scale   =       1.2000000000000000 [-]
	 SCS Same-Spin Energy      =      -0.4893432354715750 [Eh]
	 SCS Opposite-Spin Energy  =      -4.8528308100157656 [Eh]
	 SCS Correlation Energy    =      -5.3421740454873401 [Eh]
	 SCS Total Energy          =   -1577.7032279076142913 [Eh]
	-----------------------------------------------------------

*** Psi4 exiting successfully. Buy a developer a beer!
