                               Psi4 1.3.2 release

  ==> Input File <==

--------------------------------------------------------------------------
molecule {
0 1
 C   -0.576308    4.116295   -2.329131
 C    0.705342    4.169211   -1.766263
 C    1.345862    2.981841   -1.360458
 C    0.619496    1.784093   -1.572844
 N   -0.603035    1.713715   -2.115734
 C   -1.184158    2.865800   -2.482483
 C    2.725493    2.941619   -0.752794
 C    3.587486    4.045350   -0.635276
 C    4.842833    3.785109   -0.073666
 N    5.240214    2.587789    0.350164
 C    4.342486    1.590776    0.215578
 N    3.125803    1.734223   -0.311700
 N    4.762422    0.356656    0.672354
 C    4.199128   -0.963520    0.584402
 C    5.065914   -2.098051    0.599785
 C    4.469430   -3.365669    0.503116
 C    3.089948   -3.572723    0.395503
 C    2.248901   -2.454618    0.392592
 C    2.816549   -1.173545    0.492823
 N    0.821785   -2.499926    0.298000
 C   -0.025611   -3.511343   -0.092567
 C   -1.478660   -3.099475   -0.154894
 C   -2.039082   -2.688457   -1.373171
 C   -3.359207   -2.234248   -1.418344
 C   -4.158968   -2.187287   -0.259502
 C   -3.604304   -2.687039    0.934897
 C   -2.284441   -3.140711    0.992097
 C   -5.584198   -1.632095   -0.299554
 N   -5.807711   -0.232140    0.096628
 C   -5.196190    0.847945   -0.709261
 C   -3.843373    1.373297   -0.161606
 N   -3.886524    1.767066    1.269554
 C   -4.394676    3.113511    1.558669
 C   -4.460445    0.652870    2.063087
 C   -5.821358    0.134475    1.529748
 O    0.336259   -4.642583   -0.366940
 C    6.578597   -1.990497    0.696879
 H   -1.090271    5.020054   -2.642776
 H    1.176955    5.140679   -1.640924
 H    1.057568    0.825020   -1.312612
 H   -2.176040    2.769465   -2.921352
 H    3.348626    5.048670   -0.965536
 H    5.591138    4.567530    0.049925
 H    5.723670    0.422848    0.971563
 H    5.103228   -4.251397    0.507195
 H    2.671543   -4.567521    0.304477
 H    2.173473   -0.306757    0.512465
 H    0.385710   -1.587886    0.306108
 H   -1.419441   -2.687462   -2.266111
 H   -3.756241   -1.875730   -2.367784
 H   -4.202291   -2.699419    1.845603
 H   -1.856411   -3.497033    1.925600
 H   -5.969123   -1.740006   -1.323334
 H   -6.222027   -2.259999    0.337961
 H   -5.065663    0.473712   -1.910755
 H   -6.146976    1.975022   -0.718450
 H   -3.479259    2.182749   -0.740634
 H   -2.852647    0.306995   -0.270997
 H   -5.453608    3.198800    1.289684
 H   -3.825421    3.861228    0.994131
 H   -4.280753    3.340136    2.624897
 H   -4.602061    1.058412    3.337035
 H   -3.617640   -0.273524    2.063986
 H   -6.802591    1.226510    1.684552
 H   -6.222581   -0.766942    2.185922
 H    6.911284   -1.538319    1.642302
 H    6.982110   -1.377233   -0.113838
 H    7.075724   -2.961650    0.628562
}
memory 20GB
set_num_threads(6)
psi4_io.set_default_path("/scratch/bdw2292")
set freeze_core True
E, wfn = energy('mp2/6-311+G*',return_wfn=True)
oeprop(wfn,"WIBERG_LOWDIN_INDICES")
clean()
--------------------------------------------------------------------------

    Molecular point group: c1

    Geometry (in Angstrom), charge = 0, multiplicity = 1:

       Center              X                  Y                   Z               Mass
    ------------   -----------------  -----------------  -----------------  -----------------
         C           -0.594488126294     4.152635170976    -2.223746179903    12.000000000000
         C            0.687161873706     4.205551170976    -1.660878179903    12.000000000000
         C            1.327681873706     3.018181170976    -1.255073179903    12.000000000000
         C            0.601315873706     1.820433170976    -1.467459179903    12.000000000000
         N           -0.621215126294     1.750055170976    -2.010349179903    14.003074004430
         C           -1.202338126294     2.902140170976    -2.377098179903    12.000000000000
         C            2.707312873706     2.977959170976    -0.647409179903    12.000000000000
         C            3.569305873706     4.081690170976    -0.529891179903    12.000000000000
         C            4.824652873706     3.821449170976     0.031718820097    12.000000000000
         N            5.222033873706     2.624129170976     0.455548820097    14.003074004430
         C            4.324305873706     1.627116170976     0.320962820097    12.000000000000
         N            3.107622873706     1.770563170976    -0.206315179903    14.003074004430
         N            4.744241873706     0.392996170976     0.777738820097    14.003074004430
         C            4.180947873706    -0.927179829024     0.689786820097    12.000000000000
         C            5.047733873706    -2.061710829024     0.705169820097    12.000000000000
         C            4.451249873706    -3.329328829024     0.608500820097    12.000000000000
         C            3.071767873706    -3.536382829024     0.500887820097    12.000000000000
         C            2.230720873706    -2.418277829024     0.497976820097    12.000000000000
         C            2.798368873706    -1.137204829024     0.598207820097    12.000000000000
         N            0.803604873706    -2.463585829024     0.403384820097    14.003074004430
         C           -0.043791126294    -3.475002829024     0.012817820097    12.000000000000
         C           -1.496840126294    -3.063134829024    -0.049509179903    12.000000000000
         C           -2.057262126294    -2.652116829024    -1.267786179903    12.000000000000
         C           -3.377387126294    -2.197907829024    -1.312959179903    12.000000000000
         C           -4.177148126294    -2.150946829024    -0.154117179903    12.000000000000
         C           -3.622484126294    -2.650698829024     1.040281820097    12.000000000000
         C           -2.302621126294    -3.104370829024     1.097481820097    12.000000000000
         C           -5.602378126294    -1.595754829024    -0.194169179903    12.000000000000
         N           -5.825891126294    -0.195799829024     0.202012820097    14.003074004430
         C           -5.214370126294     0.884285170976    -0.603876179903    12.000000000000
         C           -3.861553126294     1.409637170976    -0.056221179903    12.000000000000
         N           -3.904704126294     1.803406170976     1.374938820097    14.003074004430
         C           -4.412856126294     3.149851170976     1.664053820097    12.000000000000
         C           -4.478625126294     0.689210170976     2.168471820097    12.000000000000
         C           -5.839538126294     0.170815170976     1.635132820097    12.000000000000
         O            0.318078873706    -4.606242829024    -0.261555179903    15.994914619570
         C            6.560416873706    -1.954156829024     0.802263820097    12.000000000000
         H           -1.108451126294     5.056394170976    -2.537391179903     1.007825032230
         H            1.158774873706     5.177019170976    -1.535539179903     1.007825032230
         H            1.039387873706     0.861360170976    -1.207227179903     1.007825032230
         H           -2.194220126294     2.805805170976    -2.815967179903     1.007825032230
         H            3.330445873706     5.085010170976    -0.860151179903     1.007825032230
         H            5.572957873706     4.603870170976     0.155309820097     1.007825032230
         H            5.705489873706     0.459188170976     1.076947820097     1.007825032230
         H            5.085047873706    -4.215056829024     0.612579820097     1.007825032230
         H            2.653362873706    -4.531180829024     0.409861820097     1.007825032230
         H            2.155292873706    -0.270416829024     0.617849820097     1.007825032230
         H            0.367529873706    -1.551545829024     0.411492820097     1.007825032230
         H           -1.437621126294    -2.651121829024    -2.160726179903     1.007825032230
         H           -3.774421126294    -1.839389829024    -2.262399179903     1.007825032230
         H           -4.220471126294    -2.663078829024     1.950987820097     1.007825032230
         H           -1.874591126294    -3.460692829024     2.030984820097     1.007825032230
         H           -5.987303126294    -1.703665829024    -1.217949179903     1.007825032230
         H           -6.240207126294    -2.223658829024     0.443345820097     1.007825032230
         H           -5.083843126294     0.510052170976    -1.805370179903     1.007825032230
         H           -6.165156126294     2.011362170976    -0.613065179903     1.007825032230
         H           -3.497439126294     2.219089170976    -0.635249179903     1.007825032230
         H           -2.870827126294     0.343335170976    -0.165612179903     1.007825032230
         H           -5.471788126294     3.235140170976     1.395068820097     1.007825032230
         H           -3.843601126294     3.897568170976     1.099515820097     1.007825032230
         H           -4.298933126294     3.376476170976     2.730281820097     1.007825032230
         H           -4.620241126294     1.094752170976     3.442419820097     1.007825032230
         H           -3.635820126294    -0.237183829024     2.169370820097     1.007825032230
         H           -6.820771126294     1.262850170976     1.789936820097     1.007825032230
         H           -6.240761126294    -0.730601829024     2.291306820097     1.007825032230
         H            6.893103873706    -1.501978829024     1.747686820097     1.007825032230
         H            6.963929873706    -1.340892829024    -0.008453179903     1.007825032230
         H            7.057543873706    -2.925309829024     0.733946820097     1.007825032230

  Charge       = 0
  Multiplicity = 1
  Basis Set: 6-311+G*
    Blend: 6-311+G*
  Basis Set: (6-311+G* AUX)
    Blend: HEAVY-AUG-CC-PVTZ-JKFIT

    Orbital Energies [Eh]
    ---------------------

    Doubly Occupied:

       1A    -20.528544     2A    -15.604621     3A    -15.601821
       4A    -15.580418     5A    -15.570956     6A    -15.567554
       7A    -15.566305     8A    -15.554084     9A    -11.371987
      10A    -11.366362    11A    -11.331944    12A    -11.318951
      13A    -11.311791    14A    -11.311170    15A    -11.300626
      16A    -11.299982    17A    -11.296946    18A    -11.295162
      19A    -11.292891    20A    -11.288406    21A    -11.285753
      22A    -11.277175    23A    -11.275762    24A    -11.262190
      25A    -11.258602    26A    -11.254259    27A    -11.253619
      28A    -11.252317    29A    -11.250186    30A    -11.248532
      31A    -11.247888    32A    -11.247749    33A    -11.247568
      34A    -11.240650    35A    -11.234376    36A    -11.233965
      37A    -11.227071    38A     -1.390769    39A     -1.343820
      40A     -1.273176    41A     -1.254531    42A     -1.244573
      43A     -1.242704    44A     -1.207490    45A     -1.199156
      46A     -1.163693    47A     -1.140542    48A     -1.112580
      49A     -1.073131    50A     -1.061081    51A     -1.045219
      52A     -1.038129    53A     -1.026053    54A     -1.008252
      55A     -0.996461    56A     -0.978364    57A     -0.948351
      58A     -0.928599    59A     -0.923423    60A     -0.899304
      61A     -0.869482    62A     -0.866868    63A     -0.855162
      64A     -0.845323    65A     -0.838540    66A     -0.831380
      67A     -0.824401    68A     -0.806073    69A     -0.779942
      70A     -0.753232    71A     -0.736858    72A     -0.731244
      73A     -0.720277    74A     -0.707312    75A     -0.696699
      76A     -0.680917    77A     -0.672566    78A     -0.663985
      79A     -0.660277    80A     -0.655463    81A     -0.652880
      82A     -0.645305    83A     -0.641693    84A     -0.630019
      85A     -0.623197    86A     -0.622335    87A     -0.612202
      88A     -0.609323    89A     -0.607752    90A     -0.603815
      91A     -0.601327    92A     -0.597540    93A     -0.595943
      94A     -0.589682    95A     -0.587272    96A     -0.582094
      97A     -0.580889    98A     -0.572539    99A     -0.568291
     100A     -0.556959   101A     -0.549914   102A     -0.541152
     103A     -0.530686   104A     -0.527382   105A     -0.526500
     106A     -0.519453   107A     -0.516103   108A     -0.511420
     109A     -0.510417   110A     -0.505496   111A     -0.503057
     112A     -0.497090   113A     -0.486110   114A     -0.480447
     115A     -0.464518   116A     -0.449208   117A     -0.438513
     118A     -0.436129   119A     -0.428490   120A     -0.427339
     121A     -0.412652   122A     -0.409159   123A     -0.395626
     124A     -0.379784   125A     -0.370814   126A     -0.345339
     127A     -0.343933   128A     -0.342321   129A     -0.315178
     130A     -0.312105   131A     -0.291817

  @DF-RHF Final Energy: -1572.31582989952244

   => Energetics <=

    Nuclear Repulsion Energy =           3813.9292335423629083
    One-Electron Energy =               -9726.0845518607984559
    Two-Electron Energy =                4339.8394884189128788
    Total Energy =                      -1572.3158298995222140

  Dipole Moment: [D]
     X:     0.2153      Y:     6.4477      Z:    -0.2671     Total:     6.4568

  Basis Set: (6-311+G* AUX)
    Blend: HEAVY-AUG-CC-PVTZ-RI
	 Reference Energy          =   -1572.3158298995224413 [Eh]
	 Singles Energy            =      -0.0000000000000000 [Eh]
	 Same-Spin Energy          =      -1.4495603083512816 [Eh]
	 Opposite-Spin Energy      =      -3.8932094268104978 [Eh]
	 Correlation Energy        =      -5.3427697351617791 [Eh]
	 Total Energy              =   -1577.6585996346841512 [Eh]

	 ================> DF-SCS-MP2 Energies <==================
	-----------------------------------------------------------
	 SCS Same-Spin Scale       =       0.3333333333333333 [-]
	 SCS Opposite-Spin Scale   =       1.2000000000000000 [-]
	 SCS Same-Spin Energy      =      -0.4831867694504272 [Eh]
	 SCS Opposite-Spin Energy  =      -4.6718513121725973 [Eh]
	 SCS Correlation Energy    =      -5.1550380816230241 [Eh]
	 SCS Total Energy          =   -1577.4708679811453749 [Eh]
	-----------------------------------------------------------

*** Psi4 exiting successfully. Buy a developer a beer!
