 Gaussian 09, Revision A.02,
 Gaussian 09:  EM64L-G09RevA.02 11-Jun-2009

 --------------------------------------------------
 #P opt=(,maxcycle=400) wB97XD/6-31G* MaxDisk=100GB
 --------------------------------------------------

 --------------------------------------------------------------
 MOLECULE0 Rotatable Bond Optimization on node37.bme.utexas.edu
 --------------------------------------------------------------
 Symbolic Z-matrix:
 Charge =  0 Multiplicity = 1

 SCF Done:  E(RwB97XD) =  -1581.55557498     A.U. after   16 cycles
 SCF Done:  E(RwB97XD) =  -1581.62030109     A.U. after   13 cycles
 SCF Done:  E(RwB97XD) =  -1581.71358627     A.U. after   14 cycles
 SCF Done:  E(RwB97XD) =  -1581.74400085     A.U. after   16 cycles
 SCF Done:  E(RwB97XD) =  -1581.75735411     A.U. after   16 cycles
 SCF Done:  E(RwB97XD) =  -1581.75722458     A.U. after   16 cycles
 SCF Done:  E(RwB97XD) =  -1581.75818812     A.U. after   14 cycles
 SCF Done:  E(RwB97XD) =  -1581.75882210     A.U. after   14 cycles
 SCF Done:  E(RwB97XD) =  -1581.75923906     A.U. after   14 cycles
 SCF Done:  E(RwB97XD) =  -1581.75682662     A.U. after   17 cycles
 SCF Done:  E(RwB97XD) =  -1581.76010532     A.U. after    9 cycles
 SCF Done:  E(RwB97XD) =  -1581.76010571     A.U. after    9 cycles
 SCF Done:  E(RwB97XD) =  -1581.76010480     A.U. after   12 cycles
 SCF Done:  E(RwB97XD) =  -1581.76010325     A.U. after   11 cycles
 SCF Done:  E(RwB97XD) =  -1581.76010219     A.U. after   11 cycles
 SCF Done:  E(RwB97XD) =  -1581.76010125     A.U. after    9 cycles
 SCF Done:  E(RwB97XD) =  -1581.76010095     A.U. after    8 cycles
 SCF Done:  E(RwB97XD) =  -1581.76010093     A.U. after    8 cycles
 SCF Done:  E(RwB97XD) =  -1581.76010063     A.U. after    7 cycles
 SCF Done:  E(RwB97XD) =  -1581.76010071     A.U. after    6 cycles
 Optimization completed.
    -- Stationary point found.

                         Standard orientation:
 ---------------------------------------------------------------------
 Center     Atomic      Atomic             Coordinates (Angstroms)
 Number     Number       Type             X           Y           Z
 ---------------------------------------------------------------------
      1          6           0        1.065661    4.848043    0.147155
      2          6           0        2.369611    4.385337    0.275161
      3          6           0        2.684449    3.109993   -0.191269
      4          6           0        1.652723    2.369186   -0.780846
      5          7           0        0.396597    2.792863   -0.901159
      6          6           0        0.117301    4.014092   -0.435143
      7          6           0        4.033353    2.509601   -0.040327
      8          6           0        5.203070    3.259200    0.042371
      9          6           0        6.382907    2.536660    0.214581
     10          7           0        6.430582    1.214728    0.296939
     11          6           0        5.242942    0.583558    0.188476
     12          7           0        4.059337    1.175087    0.021713
     13          7           0        5.319645   -0.778944    0.276870
     14          6           0        4.316527   -1.764502    0.245143
     15          6           0        4.682453   -3.091796    0.550481
     16          6           0        3.683377   -4.060246    0.524474
     17          6           0        2.354854   -3.782732    0.209920
     18          6           0        2.019955   -2.467298   -0.098116
     19          6           0        2.996699   -1.472059   -0.077502
     20          7           0        0.732446   -2.028821   -0.455742
     21          6           0       -0.466558   -2.681817   -0.366247
     22          6           0       -1.660646   -1.848039   -0.749705
     23          6           0       -1.653147   -0.451861   -0.831584
     24          6           0       -2.799037    0.234918   -1.212022
     25          6           0       -3.983989   -0.443068   -1.499489
     26          6           0       -3.983719   -1.837686   -1.416983
     27          6           0       -2.842463   -2.532193   -1.040464
     28          6           0       -5.247976    0.322312   -1.862762
     29          7           0       -6.140721    0.722710   -0.788077
     30          6           0       -5.655319    1.736037    0.141818
     31          6           0       -5.000649    1.156480    1.407020
     32          7           0       -5.841910    0.175421    2.086912
     33          6           0       -6.955481    0.758138    2.813678
     34          6           0       -6.231284   -0.874538    1.149563
     35          6           0       -6.903186   -0.327045   -0.121005
     36          8           0       -0.580199   -3.848811   -0.026115
     37          6           0        6.103418   -3.452496    0.902491
     38          1           0        0.783207    5.830912    0.508812
     39          1           0        3.123233    4.998799    0.760584
     40          1           0        1.870845    1.383715   -1.182737
     41          1           0       -0.916199    4.337851   -0.533342
     42          1           0        5.213537    4.338731   -0.043564
     43          1           0        7.338569    3.051569    0.289545
     44          1           0        6.265178   -1.095666    0.431132
     45          1           0        3.953303   -5.086110    0.762283
     46          1           0        1.600718   -4.556752    0.205248
     47          1           0        2.726097   -0.448084   -0.282586
     48          1           0        0.702399   -1.084943   -0.807098
     49          1           0       -0.776194    0.141512   -0.584631
     50          1           0       -2.762453    1.319630   -1.279022
     51          1           0       -4.893938   -2.386307   -1.649314
     52          1           0       -2.841961   -3.614663   -0.966701
     53          1           0       -4.961096    1.234423   -2.401337
     54          1           0       -5.837921   -0.282778   -2.562312
     55          1           0       -4.951637    2.390622   -0.385157
     56          1           0       -6.510425    2.363564    0.435318
     57          1           0       -4.761350    1.963663    2.110165
     58          1           0       -4.060034    0.659658    1.142350
     59          1           0       -7.699847    1.292466    2.197429
     60          1           0       -6.567810    1.467645    3.553123
     61          1           0       -7.481925   -0.035419    3.355313
     62          1           0       -6.906089   -1.571997    1.660353
     63          1           0       -5.325175   -1.429363    0.879751
     64          1           0       -7.887553    0.087741    0.143053
     65          1           0       -7.085929   -1.138113   -0.835160
     66          1           0        6.454259   -2.917976    1.795025
     67          1           0        6.802931   -3.230474    0.085064
     68          1           0        6.187936   -4.521759    1.111929
 ---------------------------------------------------------------------

 The electronic state is 1-A.
 Alpha  occ. eigenvalues --  -19.23284 -14.49311 -14.48399 -14.46771 -14.46126
 Alpha  occ. eigenvalues --  -14.45871 -14.43444 -14.42832 -10.41819 -10.40153
 Alpha  occ. eigenvalues --  -10.37644 -10.36361 -10.35299 -10.35231 -10.34643
 Alpha  occ. eigenvalues --  -10.34150 -10.33997 -10.33664 -10.32863 -10.32297
 Alpha  occ. eigenvalues --  -10.31875 -10.31132 -10.31059 -10.31052 -10.30945
 Alpha  occ. eigenvalues --  -10.30744 -10.30399 -10.30386 -10.30362 -10.30324
 Alpha  occ. eigenvalues --  -10.30173 -10.30162 -10.30106 -10.30036 -10.29516
 Alpha  occ. eigenvalues --  -10.28709 -10.28310  -1.13480  -1.12317  -1.06375
 Alpha  occ. eigenvalues --   -1.04592  -1.03635  -1.03601  -1.00740  -0.99342
 Alpha  occ. eigenvalues --   -0.96055  -0.94693  -0.93142  -0.89805  -0.88078
 Alpha  occ. eigenvalues --   -0.87399  -0.86252  -0.85199  -0.84533  -0.83772
 Alpha  occ. eigenvalues --   -0.81725  -0.79531  -0.78273  -0.77718  -0.76340
 Alpha  occ. eigenvalues --   -0.73952  -0.73055  -0.72983  -0.72644  -0.70875
 Alpha  occ. eigenvalues --   -0.70324  -0.69544  -0.67989  -0.66453  -0.65242
 Alpha  occ. eigenvalues --   -0.63729  -0.63329  -0.62284  -0.61851  -0.60211
 Alpha  occ. eigenvalues --   -0.58870  -0.58004  -0.57564  -0.56466  -0.56202
 Alpha  occ. eigenvalues --   -0.55781  -0.55079  -0.54904  -0.54736  -0.54336
 Alpha  occ. eigenvalues --   -0.53658  -0.53209  -0.52986  -0.52413  -0.52087
 Alpha  occ. eigenvalues --   -0.51889  -0.51562  -0.51330  -0.50924  -0.50712
 Alpha  occ. eigenvalues --   -0.50519  -0.50388  -0.49942  -0.49437  -0.48335
 Alpha  occ. eigenvalues --   -0.47286  -0.46715  -0.46540  -0.46443  -0.46060
 Alpha  occ. eigenvalues --   -0.45583  -0.44956  -0.44607  -0.43944  -0.43745
 Alpha  occ. eigenvalues --   -0.43354  -0.43151  -0.42134  -0.41689  -0.41267
 Alpha  occ. eigenvalues --   -0.40729  -0.40632  -0.39892  -0.38214  -0.37563
 Alpha  occ. eigenvalues --   -0.35836  -0.35359  -0.33920  -0.33575  -0.33262
 Alpha  occ. eigenvalues --   -0.32900  -0.32020  -0.30634  -0.29158  -0.27013
 Alpha  occ. eigenvalues --   -0.24766
 Alpha virt. eigenvalues --   -0.00257   0.02894   0.03199   0.04358   0.06537
 Alpha virt. eigenvalues --    0.07197   0.08457   0.10624   0.13526   0.14912
 Alpha virt. eigenvalues --    0.15918   0.16358   0.17277   0.17675   0.18732

 Mulliken atomic charges:
              1
     1  C   -0.195428
     2  C   -0.154972
     3  C    0.039066
     4  C    0.014690
     5  N   -0.432864
     6  C    0.028066
     7  C    0.290726
     8  C   -0.257048
     9  C    0.050153
    10  N   -0.494766
    11  C    0.719270
    12  N   -0.566423
    13  N   -0.810910
    14  C    0.288652
    15  C    0.120409
    16  C   -0.241420
    17  C   -0.187661
    18  C    0.364127
    19  C   -0.270704
    20  N   -0.780606
    21  C    0.612471
    22  C    0.017054
    23  C   -0.210712
    24  C   -0.226436
    25  C    0.160079
    26  C   -0.223213
    27  C   -0.178172
    28  C   -0.263888
    29  N   -0.381382
    30  C   -0.184403
    31  C   -0.182450
    32  N   -0.383742
    33  C   -0.349383
    34  C   -0.183815
    35  C   -0.185961
    36  O   -0.521018
    37  C   -0.609407
    38  H    0.186820
    39  H    0.187371
    40  H    0.189843
    41  H    0.182090
    42  H    0.181429
    43  H    0.189695
    44  H    0.370016
    45  H    0.160492
    46  H    0.213612
    47  H    0.204510
    48  H    0.362150
    49  H    0.178579
    50  H    0.170160
    51  H    0.164349
    52  H    0.201601
    53  H    0.169242
    54  H    0.169597
    55  H    0.149574
    56  H    0.158720
    57  H    0.150199
    58  H    0.173064
    59  H    0.134266
    60  H    0.165894
    61  H    0.167539
    62  H    0.153478
    63  H    0.173245
    64  H    0.159252
    65  H    0.152613
    66  H    0.183042
    67  H    0.178587
    68  H    0.190991
 Sum of Mulliken atomic charges =   0.00000

 Dipole moment (field-independent basis, Debye):
    X=              2.2693    Y=              6.0721    Z=             -0.1724  Tot=              6.4845
 Quadrupole moment (field-independent basis, Debye-Ang):
   XX=           -188.4969   YY=           -195.1433   ZZ=           -221.6157
   XY=              6.1951   XZ=              4.3044   YZ=              5.4994

 Normal termination of Gaussian 09 at Wed Apr  8 23:53:42 2020.
