 Gaussian 09, Revision A.02,
 Gaussian 09:  EM64L-G09RevA.02 11-Jun-2009

 --------------------------------------------------
 #P opt=(,maxcycle=400) wB97XD/6-31G* MaxDisk=100GB
 --------------------------------------------------

 --------------------------------------------------------------
 MOLECULE0 Rotatable Bond Optimization on node37.bme.utexas.edu
 --------------------------------------------------------------
 Symbolic Z-matrix:
 Charge =  0 Multiplicity = 1

 SCF Done:  E(RwB97XD) =  -1581.52035515     A.U. after   16 cycles
 SCF Done:  E(RwB97XD) =  -1581.57948946     A.U. after   13 cycles
 SCF Done:  E(RwB97XD) =  -1581.67763084     A.U. after   17 cycles
 SCF Done:  E(RwB97XD) =  -1581.72827361     A.U. after   15 cycles
 SCF Done:  E(RwB97XD) =  -1581.74775908     A.U. after   17 cycles
 SCF Done:  E(RwB97XD) =  -1581.75222503     A.U. after   17 cycles
 SCF Done:  E(RwB97XD) =  -1581.75476300     A.U. after   14 cycles
 SCF Done:  E(RwB97XD) =  -1581.75517176     A.U. after   14 cycles
 SCF Done:  E(RwB97XD) =  -1581.75533233     A.U. after   13 cycles
 SCF Done:  E(RwB97XD) =  -1581.75546574     A.U. after   14 cycles
 SCF Done:  E(RwB97XD) =  -1581.75582257     A.U. after   17 cycles
 SCF Done:  E(RwB97XD) =  -1581.75586768     A.U. after   17 cycles
 SCF Done:  E(RwB97XD) =  -1581.75589003     A.U. after   12 cycles
 SCF Done:  E(RwB97XD) =  -1581.75589661     A.U. after   12 cycles
 SCF Done:  E(RwB97XD) =  -1581.75590499     A.U. after   11 cycles
 SCF Done:  E(RwB97XD) =  -1581.75590755     A.U. after   11 cycles
 SCF Done:  E(RwB97XD) =  -1581.75590856     A.U. after   10 cycles
 SCF Done:  E(RwB97XD) =  -1581.75590910     A.U. after    8 cycles
 SCF Done:  E(RwB97XD) =  -1581.75590934     A.U. after    7 cycles
 SCF Done:  E(RwB97XD) =  -1581.75590938     A.U. after    7 cycles
 Optimization completed.
    -- Stationary point found.

                         Standard orientation:
 ---------------------------------------------------------------------
 Center     Atomic      Atomic             Coordinates (Angstroms)
 Number     Number       Type             X           Y           Z
 ---------------------------------------------------------------------
      1          6           0        8.515218   -0.753623   -2.312214
      2          6           0        7.904555    0.348276   -1.729543
      3          6           0        6.627271    0.208878   -1.185465
      4          6           0        6.032197   -1.057890   -1.252922
      5          7           0        6.606871   -2.123410   -1.808931
      6          6           0        7.826452   -1.962207   -2.327667
      7          6           0        5.899567    1.333411   -0.546237
      8          6           0        6.268774    2.669559   -0.709533
      9          6           0        5.493501    3.611039   -0.042100
     10          7           0        4.448793    3.300147    0.715504
     11          6           0        4.172270    1.985149    0.791976
     12          7           0        4.842892    0.996311    0.198438
     13          7           0        3.092273    1.658667    1.564282
     14          6           0        2.489881    0.373936    1.630606
     15          6           0        3.143882   -0.707562    2.236678
     16          6           0        2.453801   -1.919148    2.278699
     17          6           0        1.168026   -2.080018    1.776669
     18          6           0        0.526117   -0.984557    1.196199
     19          6           0        1.201768    0.233926    1.122640
     20          7           0       -0.768230   -1.037440    0.643957
     21          6           0       -1.690827   -2.051262    0.722263
     22          6           0       -2.979172   -1.767701    0.003716
     23          6           0       -3.056271   -0.981093   -1.148281
     24          6           0       -4.282931   -0.761654   -1.763980
     25          6           0       -5.457696   -1.302820   -1.239701
     26          6           0       -5.363633   -2.122133   -0.111999
     27          6           0       -4.141147   -2.358065    0.501833
     28          6           0       -6.809836   -0.989733   -1.864134
     29          7           0       -7.512132    0.197853   -1.407583
     30          6           0       -6.987072    1.495248   -1.816232
     31          6           0       -6.024659    2.127147   -0.795895
     32          7           0       -6.576108    2.180132    0.555035
     33          6           0       -7.584381    3.209266    0.738755
     34          6           0       -7.011505    0.847117    0.964987
     35          6           0       -7.991655    0.202337   -0.030178
     36          8           0       -1.514717   -3.093339    1.330952
     37          6           0        4.518479   -0.579070    2.831234
     38          1           0        9.508741   -0.680722   -2.741800
     39          1           0        8.429245    1.297881   -1.685481
     40          1           0        5.041155   -1.199571   -0.830679
     41          1           0        8.275863   -2.846561   -2.774270
     42          1           0        7.095852    2.977817   -1.336000
     43          1           0        5.720600    4.672111   -0.126330
     44          1           0        2.537459    2.455940    1.839979
     45          1           0        2.936976   -2.775764    2.741450
     46          1           0        0.659115   -3.030559    1.845874
     47          1           0        0.730549    1.094016    0.651115
     48          1           0       -1.097716   -0.171771    0.243897
     49          1           0       -2.155794   -0.569473   -1.597413
     50          1           0       -4.328315   -0.159053   -2.668339
     51          1           0       -6.263828   -2.578215    0.293453
     52          1           0       -4.066188   -3.002258    1.371813
     53          1           0       -6.685102   -0.893814   -2.949722
     54          1           0       -7.477722   -1.844574   -1.699012
     55          1           0       -6.494458    1.387422   -2.789426
     56          1           0       -7.840585    2.172602   -1.968040
     57          1           0       -5.761681    3.144893   -1.109678
     58          1           0       -5.096853    1.544604   -0.751965
     59          1           0       -8.505456    3.086389    0.142452
     60          1           0       -7.151022    4.182543    0.484046
     61          1           0       -7.874710    3.239217    1.794650
     62          1           0       -7.474930    0.917260    1.956398
     63          1           0       -6.116950    0.220783    1.061913
     64          1           0       -8.943881    0.752643   -0.005208
     65          1           0       -8.215922   -0.827666    0.269618
     66          1           0        4.651839    0.399169    3.304292
     67          1           0        5.285940   -0.670260    2.055381
     68          1           0        4.689143   -1.354646    3.583465
 ---------------------------------------------------------------------

 The electronic state is 1-A.
 Alpha  occ. eigenvalues --  -19.24202 -14.49457 -14.47987 -14.45089 -14.44938
 Alpha  occ. eigenvalues --  -14.44868 -14.44067 -14.43495 -10.41026 -10.40719
 Alpha  occ. eigenvalues --  -10.36658 -10.35417 -10.34758 -10.34064 -10.33886
 Alpha  occ. eigenvalues --  -10.33415 -10.32979 -10.32882 -10.32261 -10.32016
 Alpha  occ. eigenvalues --  -10.31937 -10.31743 -10.31634 -10.31615 -10.31550
 Alpha  occ. eigenvalues --  -10.31275 -10.31154 -10.31121 -10.31011 -10.30975
 Alpha  occ. eigenvalues --  -10.30938 -10.30854 -10.30419 -10.30305 -10.29546
 Alpha  occ. eigenvalues --  -10.29045 -10.28099  -1.14402  -1.11336  -1.04798
 Alpha  occ. eigenvalues --   -1.04573  -1.04273  -1.03282  -0.99995  -0.99768
 Alpha  occ. eigenvalues --   -0.96991  -0.94706  -0.91954  -0.88813  -0.88433
 Alpha  occ. eigenvalues --   -0.86444  -0.86301  -0.85941  -0.85391  -0.83601
 Alpha  occ. eigenvalues --   -0.82313  -0.79435  -0.77930  -0.77161  -0.75301
 Alpha  occ. eigenvalues --   -0.73696  -0.73259  -0.72592  -0.71488  -0.71200
 Alpha  occ. eigenvalues --   -0.71058  -0.70387  -0.68237  -0.66363  -0.64676
 Alpha  occ. eigenvalues --   -0.64146  -0.63690  -0.62371  -0.60954  -0.59679
 Alpha  occ. eigenvalues --   -0.58670  -0.57753  -0.57248  -0.56358  -0.56254
 Alpha  occ. eigenvalues --   -0.55484  -0.55383  -0.55195  -0.54806  -0.54399
 Alpha  occ. eigenvalues --   -0.53999  -0.53782  -0.53143  -0.53106  -0.52736
 Alpha  occ. eigenvalues --   -0.51725  -0.51410  -0.51047  -0.50851  -0.50525
 Alpha  occ. eigenvalues --   -0.50115  -0.49621  -0.49179  -0.48966  -0.48800
 Alpha  occ. eigenvalues --   -0.47155  -0.46926  -0.46717  -0.46485  -0.45694
 Alpha  occ. eigenvalues --   -0.45283  -0.45055  -0.44961  -0.44304  -0.43870
 Alpha  occ. eigenvalues --   -0.43036  -0.42966  -0.42054  -0.42003  -0.41390
 Alpha  occ. eigenvalues --   -0.41366  -0.40536  -0.39723  -0.37892  -0.36576
 Alpha  occ. eigenvalues --   -0.34405  -0.34340  -0.33875  -0.33855  -0.32879
 Alpha  occ. eigenvalues --   -0.32694  -0.32258  -0.31267  -0.29714  -0.28104
 Alpha  occ. eigenvalues --   -0.25403
 Alpha virt. eigenvalues --    0.00637   0.02528   0.04278   0.05489   0.05901
 Alpha virt. eigenvalues --    0.07529   0.08051   0.09836   0.13830   0.15091
 Alpha virt. eigenvalues --    0.15878   0.16982   0.17108   0.18536   0.18750

 Mulliken atomic charges:
              1
     1  C   -0.196746
     2  C   -0.158547
     3  C    0.025403
     4  C    0.003974
     5  N   -0.421721
     6  C    0.024792
     7  C    0.289136
     8  C   -0.248282
     9  C    0.042322
    10  N   -0.490977
    11  C    0.667733
    12  N   -0.540964
    13  N   -0.760409
    14  C    0.248581
    15  C    0.163421
    16  C   -0.245051
    17  C   -0.182137
    18  C    0.354030
    19  C   -0.268638
    20  N   -0.767682
    21  C    0.597036
    22  C    0.016775
    23  C   -0.209579
    24  C   -0.219293
    25  C    0.159280
    26  C   -0.222201
    27  C   -0.175608
    28  C   -0.264183
    29  N   -0.380631
    30  C   -0.185012
    31  C   -0.181071
    32  N   -0.385751
    33  C   -0.350946
    34  C   -0.182275
    35  C   -0.186961
    36  O   -0.510303
    37  C   -0.571372
    38  H    0.179770
    39  H    0.179443
    40  H    0.213008
    41  H    0.179162
    42  H    0.175734
    43  H    0.183935
    44  H    0.361386
    45  H    0.167191
    46  H    0.220121
    47  H    0.156542
    48  H    0.355392
    49  H    0.173389
    50  H    0.166161
    51  H    0.168362
    52  H    0.202042
    53  H    0.171140
    54  H    0.172271
    55  H    0.151467
    56  H    0.161783
    57  H    0.152626
    58  H    0.162321
    59  H    0.136514
    60  H    0.167021
    61  H    0.168733
    62  H    0.155029
    63  H    0.169033
    64  H    0.161759
    65  H    0.154252
    66  H    0.178362
    67  H    0.199464
    68  H    0.170443
 Sum of Mulliken atomic charges =   0.00000

 Dipole moment (field-independent basis, Debye):
    X=              0.3055    Y=              4.3820    Z=             -2.2504  Tot=              4.9355
 Quadrupole moment (field-independent basis, Debye-Ang):
   XX=           -167.8694   YY=           -220.7068   ZZ=           -212.5554
   XY=              9.3700   XZ=             -8.2437   YZ=             -4.9571

 Normal termination of Gaussian 09 at Tue Mar  3 11:32:31 2020.
