                               Psi4 1.3.2 release

  ==> Input File <==

--------------------------------------------------------------------------
molecule {
0 1
 C    0.544263    4.131388   -0.790713
 C   -0.833822    4.165468   -0.537804
 C   -1.565365    2.963346   -0.477255
 C   -0.824967    1.778969   -0.722296
 N    0.491631    1.725742   -0.956113
 C    1.161120    2.889175   -0.980469
 C   -3.021265    2.887832   -0.090239
 C   -3.846012    3.970656    0.255847
 C   -5.123919    3.636459    0.723579
 N   -5.574127    2.392049    0.871668
 C   -4.712402    1.421746    0.507835
 N   -3.489708    1.632569    0.022566
 N   -5.131585    0.118937    0.662684
 C   -4.485913   -1.111881    0.314678
 C   -5.237670   -2.146855   -0.313969
 C   -4.555316   -3.338342   -0.610107
 C   -3.186595   -3.528740   -0.383104
 C   -2.453908   -2.477004    0.179173
 C   -3.125680   -1.309984    0.578841
 N   -1.038912   -2.463323    0.400890
 C   -0.048600   -3.269552   -0.110569
 C    1.387189   -2.913640    0.221143
 C    1.793498   -2.319296    1.426374
 C    3.126658   -1.945696    1.612717
 C    4.106667   -2.206777    0.636008
 C    3.701316   -2.890128   -0.525640
 C    2.364329   -3.231380   -0.737479
 C    5.560751   -1.780228    0.840690
 N    5.957894   -0.403254    0.500607
 C    5.623957    0.711155    1.416275
 C    4.396250    1.567326    1.004759
 N    4.411603    2.051138   -0.397457
 C    5.234102    3.239916   -0.658567
 C    4.633171    0.887034   -1.286557
 C    5.868651    0.031673   -0.910706
 O   -0.286713   -4.231396   -0.823829
 C   -6.712438   -2.010999   -0.649620
 H    1.135457    5.041873   -0.813757
 H   -1.300884    5.129865   -0.353608
 H   -1.327044    0.815414   -0.708042
 H    2.234181    2.820350   -1.143108
 H   -3.530832    5.006186    0.217136
 H   -5.818798    4.420983    1.022101
 H   -6.058782    0.035627    1.053634
 H   -5.096989   -4.155467   -1.085112
 H   -2.685690   -4.438327   -0.691058
 H   -2.583182   -0.488928    1.027735
 H   -0.705277   -1.602013    0.810450
 H    1.054005   -2.105341    2.193988
 H    3.405282   -1.447165    2.541195
 H    4.427937   -3.127699   -1.301881
 H    2.053942   -3.726254   -1.654535
 H    5.823919   -1.947748    1.895079
 H    6.204419   -2.447943    0.249730
 H    5.544493    0.353666    2.443245
 H    6.849702    1.707855    1.378426
 H    4.268428    2.524899    1.762285
 H    3.186380    0.712425    1.148738
 H    6.295906    3.031561   -0.485510
 H    4.924398    4.064136   -0.005595
 H    5.103639    3.566562   -1.696908
 H    4.654863    1.205643   -2.299407
 H    3.372477   -0.055228   -1.115665
 H    7.099737    0.895883   -1.200904
 H    5.918556   -1.083750   -1.764385
 H   -6.933452   -1.048272   -1.131893
 H   -7.334393   -2.076351    0.254197
 H   -7.065728   -2.791810   -1.337342
}
memory 20GB
set_num_threads(6)
psi4_io.set_default_path("/scratch/bdw2292")
set freeze_core True
E, wfn = energy('mp2/6-311++G**',return_wfn=True)
oeprop(wfn,"WIBERG_LOWDIN_INDICES")
clean()
--------------------------------------------------------------------------

    Molecular point group: c1

    Geometry (in Angstrom), charge = 0, multiplicity = 1:

       Center              X                  Y                   Z               Mass
    ------------   -----------------  -----------------  -----------------  -----------------
         C            0.615689653291     4.160646784792    -0.792114075219    12.000000000000
         C           -0.762395346709     4.194726784792    -0.539205075219    12.000000000000
         C           -1.493938346709     2.992604784792    -0.478656075219    12.000000000000
         C           -0.753540346709     1.808227784792    -0.723697075219    12.000000000000
         N            0.563057653291     1.755000784792    -0.957514075219    14.003074004430
         C            1.232546653291     2.918433784792    -0.981870075219    12.000000000000
         C           -2.949838346709     2.917090784792    -0.091640075219    12.000000000000
         C           -3.774585346709     3.999914784792     0.254445924781    12.000000000000
         C           -5.052492346709     3.665717784792     0.722177924781    12.000000000000
         N           -5.502700346709     2.421307784792     0.870266924781    14.003074004430
         C           -4.640975346709     1.451004784792     0.506433924781    12.000000000000
         N           -3.418281346709     1.661827784792     0.021164924781    14.003074004430
         N           -5.060158346709     0.148195784792     0.661282924781    14.003074004430
         C           -4.414486346709    -1.082622215208     0.313276924781    12.000000000000
         C           -5.166243346709    -2.117596215208    -0.315370075219    12.000000000000
         C           -4.483889346709    -3.309083215208    -0.611508075219    12.000000000000
         C           -3.115168346709    -3.499481215208    -0.384505075219    12.000000000000
         C           -2.382481346709    -2.447745215208     0.177771924781    12.000000000000
         C           -3.054253346709    -1.280725215208     0.577439924781    12.000000000000
         N           -0.967485346709    -2.434064215208     0.399488924781    14.003074004430
         C            0.022826653291    -3.240293215208    -0.111970075219    12.000000000000
         C            1.458615653291    -2.884381215208     0.219741924781    12.000000000000
         C            1.864924653291    -2.290037215208     1.424972924781    12.000000000000
         C            3.198084653291    -1.916437215208     1.611315924781    12.000000000000
         C            4.178093653291    -2.177518215208     0.634606924781    12.000000000000
         C            3.772742653291    -2.860869215208    -0.527041075219    12.000000000000
         C            2.435755653291    -3.202121215208    -0.738880075219    12.000000000000
         C            5.632177653291    -1.750969215208     0.839288924781    12.000000000000
         N            6.029320653291    -0.373995215208     0.499205924781    14.003074004430
         C            5.695383653291     0.740413784792     1.414873924781    12.000000000000
         C            4.467676653291     1.596584784792     1.003357924781    12.000000000000
         N            4.483029653291     2.080396784792    -0.398858075219    14.003074004430
         C            5.305528653291     3.269174784792    -0.659968075219    12.000000000000
         C            4.704597653291     0.916292784792    -1.287958075219    12.000000000000
         C            5.940077653291     0.060931784792    -0.912107075219    12.000000000000
         O           -0.215286346709    -4.202137215208    -0.825230075219    15.994914619570
         C           -6.641011346709    -1.981740215208    -0.651021075219    12.000000000000
         H            1.206883653291     5.071131784792    -0.815158075219     1.007825032230
         H           -1.229457346709     5.159123784792    -0.355009075219     1.007825032230
         H           -1.255617346709     0.844672784792    -0.709443075219     1.007825032230
         H            2.305607653291     2.849608784792    -1.144509075219     1.007825032230
         H           -3.459405346709     5.035444784792     0.215734924781     1.007825032230
         H           -5.747371346709     4.450241784792     1.020699924781     1.007825032230
         H           -5.987355346709     0.064885784792     1.052232924781     1.007825032230
         H           -5.025562346709    -4.126208215208    -1.086513075219     1.007825032230
         H           -2.614263346709    -4.409068215208    -0.692459075219     1.007825032230
         H           -2.511755346709    -0.459669215208     1.026333924781     1.007825032230
         H           -0.633850346709    -1.572754215208     0.809048924781     1.007825032230
         H            1.125431653291    -2.076082215208     2.192586924781     1.007825032230
         H            3.476708653291    -1.417906215208     2.539793924781     1.007825032230
         H            4.499363653291    -3.098440215208    -1.303282075219     1.007825032230
         H            2.125368653291    -3.696995215208    -1.655936075219     1.007825032230
         H            5.895345653291    -1.918489215208     1.893677924781     1.007825032230
         H            6.275845653291    -2.418684215208     0.248328924781     1.007825032230
         H            5.615919653291     0.382924784792     2.441843924781     1.007825032230
         H            6.921128653291     1.737113784792     1.377024924781     1.007825032230
         H            4.339854653291     2.554157784792     1.760883924781     1.007825032230
         H            3.257806653291     0.741683784792     1.147336924781     1.007825032230
         H            6.367332653291     3.060819784792    -0.486911075219     1.007825032230
         H            4.995824653291     4.093394784792    -0.006996075219     1.007825032230
         H            5.175065653291     3.595820784792    -1.698309075219     1.007825032230
         H            4.726289653291     1.234901784792    -2.300808075219     1.007825032230
         H            3.443903653291    -0.025969215208    -1.117066075219     1.007825032230
         H            7.171163653291     0.925141784792    -1.202305075219     1.007825032230
         H            5.989982653291    -1.054491215208    -1.765786075219     1.007825032230
         H           -6.862025346709    -1.019013215208    -1.133294075219     1.007825032230
         H           -7.262966346709    -2.047092215208     0.252795924781     1.007825032230
         H           -6.994301346709    -2.762551215208    -1.338743075219     1.007825032230

  Charge       = 0
  Multiplicity = 1
  Basis Set: 6-311++G**
    Blend: 6-311++G**
  Basis Set: (6-311++G** AUX)
    Blend: AUG-CC-PVTZ-JKFIT

    Orbital Energies [Eh]
    ---------------------

    Doubly Occupied:

       1A    -20.521904     2A    -15.602568     3A    -15.593984
       4A    -15.578455     5A    -15.568962     6A    -15.568758
       7A    -15.566269     8A    -15.557848     9A    -11.366107
      10A    -11.364921    11A    -11.339575    12A    -11.324893
      13A    -11.318347    14A    -11.315699    15A    -11.307249
      16A    -11.303399    17A    -11.292187    18A    -11.292049
      19A    -11.284605    20A    -11.282522    21A    -11.279663
      22A    -11.276050    23A    -11.265639    24A    -11.259405
      25A    -11.259375    26A    -11.259338    27A    -11.258067
      28A    -11.250261    29A    -11.250228    30A    -11.249514
      31A    -11.246920    32A    -11.246094    33A    -11.243611
      34A    -11.238175    35A    -11.235142    36A    -11.231596
      37A    -11.228543    38A     -1.387963    39A     -1.339012
      40A     -1.261389    41A     -1.252935    42A     -1.251243
      43A     -1.238145    44A     -1.210665    45A     -1.202304
      46A     -1.164407    47A     -1.137852    48A     -1.102706
      49A     -1.066359    50A     -1.059680    51A     -1.038205
      52A     -1.034576    53A     -1.026442    54A     -1.005108
      55A     -1.002143    56A     -0.983313    57A     -0.947533
      58A     -0.931812    59A     -0.915219    60A     -0.893285
      61A     -0.870418    62A     -0.860039    63A     -0.851985
      64A     -0.846664    65A     -0.840708    66A     -0.833983
      67A     -0.822364    68A     -0.806316    69A     -0.776421
      70A     -0.748675    71A     -0.736792    72A     -0.726909
      73A     -0.711228    74A     -0.703713    75A     -0.691448
      76A     -0.676677    77A     -0.672693    78A     -0.659194
      79A     -0.658299    80A     -0.651588    81A     -0.650240
      82A     -0.644525    83A     -0.639906    84A     -0.632463
      85A     -0.628200    86A     -0.621961    87A     -0.621373
      88A     -0.611850    89A     -0.605073    90A     -0.600448
      91A     -0.597259    92A     -0.594613    93A     -0.591627
      94A     -0.589089    95A     -0.582858    96A     -0.578541
      97A     -0.577280    98A     -0.575396    99A     -0.567489
     100A     -0.546393   101A     -0.545059   102A     -0.538064
     103A     -0.529749   104A     -0.527036   105A     -0.524690
     106A     -0.516682   107A     -0.513542   108A     -0.507964
     109A     -0.506276   110A     -0.501250   111A     -0.497570
     112A     -0.492356   113A     -0.484290   114A     -0.474226
     115A     -0.470939   116A     -0.443135   117A     -0.432174
     118A     -0.428225   119A     -0.426526   120A     -0.425137
     121A     -0.405249   122A     -0.388094   123A     -0.386574
     124A     -0.382157   125A     -0.361196   126A     -0.348966
     127A     -0.344255   128A     -0.333949   129A     -0.316958
     130A     -0.312739   131A     -0.294697

  @DF-RHF Final Energy: -1572.27978881698118

   => Energetics <=

    Nuclear Repulsion Energy =           3815.5488037928221274
    One-Electron Energy =               -9729.7719250138270581
    Two-Electron Energy =                4341.9433324040237494
    Total Energy =                      -1572.2797888169807266

  Dipole Moment: [D]
     X:     0.8697      Y:     5.5033      Z:     1.8634     Total:     5.8750

  Basis Set: (6-311++G** AUX)
    Blend: AUG-CC-PVTZ-RI
	 Reference Energy          =   -1572.2797888169811813 [Eh]
	 Singles Energy            =      -0.0000000000000000 [Eh]
	 Same-Spin Energy          =      -1.4745608422569596 [Eh]
	 Opposite-Spin Energy      =      -4.0557749874321782 [Eh]
	 Correlation Energy        =      -5.5303358296891378 [Eh]
	 Total Energy              =   -1577.8101246466703742 [Eh]

	 ================> DF-SCS-MP2 Energies <==================
	-----------------------------------------------------------
	 SCS Same-Spin Scale       =       0.3333333333333333 [-]
	 SCS Opposite-Spin Scale   =       1.2000000000000000 [-]
	 SCS Same-Spin Energy      =      -0.4915202807523198 [Eh]
	 SCS Opposite-Spin Energy  =      -4.8669299849186141 [Eh]
	 SCS Correlation Energy    =      -5.3584502656709336 [Eh]
	 SCS Total Energy          =   -1577.6382390826520350 [Eh]
	-----------------------------------------------------------

*** Psi4 exiting successfully. Buy a developer a beer!
