                               Psi4 1.3.2 release

  ==> Input File <==

--------------------------------------------------------------------------
molecule {
0 1
 C   -8.518968   -3.581616   -0.632721
 C   -7.163127   -3.288024   -0.436937
 C   -6.750352   -1.953991   -0.244694
 C   -7.778495   -0.979230   -0.267182
 N   -9.078408   -1.242901   -0.454238
 C   -9.433719   -2.523355   -0.632764
 C   -5.313110   -1.552964   -0.026554
 C   -4.221461   -2.436894    0.000131
 C   -2.970859   -1.849966    0.214469
 N   -2.771394   -0.546605    0.386716
 C   -3.876799    0.227064    0.350840
 N   -5.114849   -0.232175    0.151947
 N   -3.693461    1.585668    0.535693
 C   -2.567096    2.488053    0.451397
 C   -2.792324    3.881704    0.674554
 C   -1.681176    4.735462    0.582455
 C   -0.383622    4.298044    0.297933
 C   -0.174777    2.930440    0.091525
 C   -1.267576    2.048664    0.162884
 N    1.085654    2.320479   -0.213330
 C    2.359975    2.838905   -0.230080
 C    3.495243    1.913252   -0.623922
 C    3.348650    0.858527   -1.539943
 C    4.431585    0.032712   -1.848290
 C    5.697052    0.234547   -1.266022
 C    5.839335    1.316458   -0.376446
 C    4.763854    2.153354   -0.070089
 C    6.863917   -0.707208   -1.567278
 N    7.023774   -1.921413   -0.746573
 C    6.065597   -3.034239   -0.930961
 C    4.867037   -3.020641    0.051986
 N    5.251614   -2.944821    1.480201
 C    5.630323   -4.205353    2.129406
 C    6.177266   -1.801300    1.668025
 C    7.377469   -1.776854    0.684744
 O    2.602232    3.995826    0.074602
 C   -4.152958    4.476169    0.998843
 H   -8.858919   -4.602317   -0.781369
 H   -6.456025   -4.113899   -0.434876
 H   -7.531377    0.069013   -0.128348
 H  -10.496874   -2.704194   -0.782328
 H   -4.302052   -3.508467   -0.134546
 H   -2.074113   -2.468397    0.247274
 H   -4.584134    2.009248    0.748240
 H   -1.815731    5.804216    0.744739
 H    0.445567    4.992661    0.242866
 H   -1.109895    0.991220    0.006533
 H    1.035599    1.318575   -0.331169
 H    2.383996    0.686292   -2.010387
 H    4.279840   -0.789652   -2.547733
 H    6.802152    1.510725    0.095548
 H    4.882033    2.985706    0.619175
 H    6.789477   -1.033838   -2.614506
 H    7.801185   -0.138108   -1.482298
 H    5.755439   -3.103808   -1.954354
 H    6.847878   -4.361494   -0.613796
 H    4.104755   -4.262596   -0.164083
 H    4.122916   -2.071214   -0.187092
 H    6.551591   -4.610630    1.695950
 H    4.830132   -4.945443    2.015049
 H    5.786423   -4.044650    3.202406
 H    6.550982   -1.780589    2.785537
 H    5.400034   -0.590699    1.447267
 H    8.250498   -3.039000    1.069229
 H    8.009674   -0.905077    0.835166
 H   -4.563417    4.055693    1.927834
 H   -4.879143    4.279219    0.197619
 H   -4.125387    5.566156    1.134636
}
memory 20GB
set_num_threads(6)
psi4_io.set_default_path("/scratch/bdw2292")
set freeze_core True
E, wfn = energy('mp2/6-311++G**',return_wfn=True)
oeprop(wfn,"WIBERG_LOWDIN_INDICES")
clean()
--------------------------------------------------------------------------

    Molecular point group: c1

    Geometry (in Angstrom), charge = 0, multiplicity = 1:

       Center              X                  Y                   Z               Mass
    ------------   -----------------  -----------------  -----------------  -----------------
         C           -8.425784653246    -3.630002581621    -0.620622711995    12.000000000000
         C           -7.069943653246    -3.336410581621    -0.424838711995    12.000000000000
         C           -6.657168653246    -2.002377581621    -0.232595711995    12.000000000000
         C           -7.685311653246    -1.027616581621    -0.255083711995    12.000000000000
         N           -8.985224653246    -1.291287581621    -0.442139711995    14.003074004430
         C           -9.340535653246    -2.571741581621    -0.620665711995    12.000000000000
         C           -5.219926653246    -1.601350581621    -0.014455711995    12.000000000000
         C           -4.128277653246    -2.485280581621     0.012229288005    12.000000000000
         C           -2.877675653246    -1.898352581621     0.226567288005    12.000000000000
         N           -2.678210653246    -0.594991581621     0.398814288005    14.003074004430
         C           -3.783615653246     0.178677418379     0.362938288005    12.000000000000
         N           -5.021665653246    -0.280561581621     0.164045288005    14.003074004430
         N           -3.600277653246     1.537281418379     0.547791288005    14.003074004430
         C           -2.473912653246     2.439666418379     0.463495288005    12.000000000000
         C           -2.699140653246     3.833317418379     0.686652288005    12.000000000000
         C           -1.587992653246     4.687075418379     0.594553288005    12.000000000000
         C           -0.290438653246     4.249657418379     0.310031288005    12.000000000000
         C           -0.081593653246     2.882053418379     0.103623288005    12.000000000000
         C           -1.174392653246     2.000277418379     0.174982288005    12.000000000000
         N            1.178837346754     2.272092418379    -0.201231711995    14.003074004430
         C            2.453158346754     2.790518418379    -0.217981711995    12.000000000000
         C            3.588426346754     1.864865418379    -0.611823711995    12.000000000000
         C            3.441833346754     0.810140418379    -1.527844711995    12.000000000000
         C            4.524768346754    -0.015674581621    -1.836191711995    12.000000000000
         C            5.790235346754     0.186160418379    -1.253923711995    12.000000000000
         C            5.932518346754     1.268071418379    -0.364347711995    12.000000000000
         C            4.857037346754     2.104967418379    -0.057990711995    12.000000000000
         C            6.957100346754    -0.755594581621    -1.555179711995    12.000000000000
         N            7.116957346754    -1.969799581621    -0.734474711995    14.003074004430
         C            6.158780346754    -3.082625581621    -0.918862711995    12.000000000000
         C            4.960220346754    -3.069027581621     0.064084288005    12.000000000000
         N            5.344797346754    -2.993207581621     1.492299288005    14.003074004430
         C            5.723506346754    -4.253739581621     2.141504288005    12.000000000000
         C            6.270449346754    -1.849686581621     1.680123288005    12.000000000000
         C            7.470652346754    -1.825240581621     0.696842288005    12.000000000000
         O            2.695415346754     3.947439418379     0.086700288005    15.994914619570
         C           -4.059774653246     4.427782418379     1.010941288005    12.000000000000
         H           -8.765735653246    -4.650703581621    -0.769270711995     1.007825032230
         H           -6.362841653246    -4.162285581621    -0.422777711995     1.007825032230
         H           -7.438193653246     0.020626418379    -0.116249711995     1.007825032230
         H          -10.403690653246    -2.752580581621    -0.770229711995     1.007825032230
         H           -4.208868653246    -3.556853581621    -0.122447711995     1.007825032230
         H           -1.980929653246    -2.516783581621     0.259372288005     1.007825032230
         H           -4.490950653246     1.960861418379     0.760338288005     1.007825032230
         H           -1.722547653246     5.755829418379     0.756837288005     1.007825032230
         H            0.538750346754     4.944274418379     0.254964288005     1.007825032230
         H           -1.016711653246     0.942833418379     0.018631288005     1.007825032230
         H            1.128782346754     1.270188418379    -0.319070711995     1.007825032230
         H            2.477179346754     0.637905418379    -1.998288711995     1.007825032230
         H            4.373023346754    -0.838038581621    -2.535634711995     1.007825032230
         H            6.895335346754     1.462338418379     0.107646288005     1.007825032230
         H            4.975216346754     2.937319418379     0.631273288005     1.007825032230
         H            6.882660346754    -1.082224581621    -2.602407711995     1.007825032230
         H            7.894368346754    -0.186494581621    -1.470199711995     1.007825032230
         H            5.848622346754    -3.152194581621    -1.942255711995     1.007825032230
         H            6.941061346754    -4.409880581621    -0.601697711995     1.007825032230
         H            4.197938346754    -4.310982581621    -0.151984711995     1.007825032230
         H            4.216099346754    -2.119600581621    -0.174993711995     1.007825032230
         H            6.644774346754    -4.659016581621     1.708048288005     1.007825032230
         H            4.923315346754    -4.993829581621     2.027147288005     1.007825032230
         H            5.879606346754    -4.093036581621     3.214504288005     1.007825032230
         H            6.644165346754    -1.828975581621     2.797635288005     1.007825032230
         H            5.493217346754    -0.639085581621     1.459365288005     1.007825032230
         H            8.343681346754    -3.087386581621     1.081327288005     1.007825032230
         H            8.102857346754    -0.953463581621     0.847264288005     1.007825032230
         H           -4.470233653246     4.007306418379     1.939932288005     1.007825032230
         H           -4.785959653246     4.230832418379     0.209717288005     1.007825032230
         H           -4.032203653246     5.517769418379     1.146734288005     1.007825032230

  Charge       = 0
  Multiplicity = 1
  Basis Set: 6-311++G**
    Blend: 6-311++G**
  Basis Set: (6-311++G** AUX)
    Blend: AUG-CC-PVTZ-JKFIT

    Orbital Energies [Eh]
    ---------------------

    Doubly Occupied:

       1A    -20.525541     2A    -15.605837     3A    -15.601528
       4A    -15.577457     5A    -15.576888     6A    -15.571758
       7A    -15.569137     8A    -15.559404     9A    -11.373753
      10A    -11.369253    11A    -11.332813    12A    -11.313441
      13A    -11.312921    14A    -11.311451    15A    -11.309502
      16A    -11.307309    17A    -11.303938    18A    -11.293710
      19A    -11.293146    20A    -11.291309    21A    -11.286570
      22A    -11.282929    23A    -11.273127    24A    -11.266155
      25A    -11.265800    26A    -11.264810    27A    -11.258197
      28A    -11.257546    29A    -11.256669    30A    -11.254039
      31A    -11.250623    32A    -11.247599    33A    -11.247048
      34A    -11.239435    35A    -11.235676    36A    -11.231149
      37A    -11.224376    38A     -1.391669    39A     -1.343317
      40A     -1.269427    41A     -1.252959    42A     -1.251633
      43A     -1.240707    44A     -1.207844    45A     -1.205326
      46A     -1.170588    47A     -1.140807    48A     -1.109593
      49A     -1.072759    50A     -1.065175    51A     -1.043540
      52A     -1.038348    53A     -1.033289    54A     -1.007676
      55A     -1.004591    56A     -0.983424    57A     -0.948378
      58A     -0.932060    59A     -0.920464    60A     -0.901424
      61A     -0.871467    62A     -0.865758    63A     -0.856276
      64A     -0.851790    65A     -0.842319    66A     -0.838009
      67A     -0.824055    68A     -0.810567    69A     -0.778770
      70A     -0.754320    71A     -0.738686    72A     -0.734967
      73A     -0.717624    74A     -0.711906    75A     -0.701368
      76A     -0.686218    77A     -0.676555    78A     -0.667154
      79A     -0.663699    80A     -0.654999    81A     -0.651998
      82A     -0.650784    83A     -0.639346    84A     -0.634648
      85A     -0.626163    86A     -0.618478    87A     -0.613297
      88A     -0.611394    89A     -0.608716    90A     -0.604122
      91A     -0.601563    92A     -0.597244    93A     -0.593976
      94A     -0.590953    95A     -0.584807    96A     -0.583348
      97A     -0.582540    98A     -0.580007    99A     -0.570190
     100A     -0.553798   101A     -0.548698   102A     -0.545771
     103A     -0.537502   104A     -0.536205   105A     -0.531574
     106A     -0.525342   107A     -0.513997   108A     -0.513076
     109A     -0.511577   110A     -0.509090   111A     -0.505002
     112A     -0.500211   113A     -0.483712   114A     -0.481945
     115A     -0.460189   116A     -0.448791   117A     -0.434046
     118A     -0.433199   119A     -0.429268   120A     -0.426470
     121A     -0.411500   122A     -0.399165   123A     -0.394594
     124A     -0.385450   125A     -0.372020   126A     -0.354684
     127A     -0.350228   128A     -0.339452   129A     -0.317202
     130A     -0.314403   131A     -0.289459

  @DF-RHF Final Energy: -1572.33170172673476

   => Energetics <=

    Nuclear Repulsion Energy =           3529.3606288119558485
    One-Electron Energy =               -9156.5355913549192337
    Two-Electron Energy =                4054.8432608162288489
    Total Energy =                      -1572.3317017267349911

  Dipole Moment: [D]
     X:    -0.6967      Y:    -5.2647      Z:    -1.0345     Total:     5.4104

  Basis Set: (6-311++G** AUX)
    Blend: AUG-CC-PVTZ-RI
	 Reference Energy          =   -1572.3317017267347637 [Eh]
	 Singles Energy            =      -0.0000000000000000 [Eh]
	 Same-Spin Energy          =      -1.4681465241256113 [Eh]
	 Opposite-Spin Energy      =      -4.0445209702402494 [Eh]
	 Correlation Energy        =      -5.5126674943658607 [Eh]
	 Total Energy              =   -1577.8443692211005782 [Eh]

	 ================> DF-SCS-MP2 Energies <==================
	-----------------------------------------------------------
	 SCS Same-Spin Scale       =       0.3333333333333333 [-]
	 SCS Opposite-Spin Scale   =       1.2000000000000000 [-]
	 SCS Same-Spin Energy      =      -0.4893821747085371 [Eh]
	 SCS Opposite-Spin Energy  =      -4.8534251642882991 [Eh]
	 SCS Correlation Energy    =      -5.3428073389968365 [Eh]
	 SCS Total Energy          =   -1577.6745090657316268 [Eh]
	-----------------------------------------------------------

*** Psi4 exiting successfully. Buy a developer a beer!
