 Gaussian 09, Revision A.02,
 Gaussian 09:  EM64L-G09RevA.02 11-Jun-2009

 --------------------------------------------------
 #P opt=(,maxcycle=400) wB97XD/6-31G* MaxDisk=100GB
 --------------------------------------------------

 -----------------------------------------------------------------
 MOLECULE0 Rotatable Bond Optimization on g2-node38.bme.utexas.edu
 -----------------------------------------------------------------
 Symbolic Z-matrix:
 Charge =  0 Multiplicity = 1

 SCF Done:  E(RwB97XD) =  -1581.52142582     A.U. after   16 cycles
 SCF Done:  E(RwB97XD) =  -1581.58195418     A.U. after   13 cycles
 SCF Done:  E(RwB97XD) =  -1581.67738774     A.U. after   14 cycles
 SCF Done:  E(RwB97XD) =  -1581.71146694     A.U. after   14 cycles
 SCF Done:  E(RwB97XD) =  -1581.73092362     A.U. after   17 cycles
 SCF Done:  E(RwB97XD) =  -1581.72539666     A.U. after   14 cycles
 SCF Done:  E(RwB97XD) =  -1581.74561770     A.U. after   14 cycles
 SCF Done:  E(RwB97XD) =  -1581.75490843     A.U. after   14 cycles
 SCF Done:  E(RwB97XD) =  -1581.75761101     A.U. after   14 cycles
 SCF Done:  E(RwB97XD) =  -1581.75977234     A.U. after   14 cycles
 SCF Done:  E(RwB97XD) =  -1581.76302846     A.U. after   13 cycles
 SCF Done:  E(RwB97XD) =  -1581.76315798     A.U. after   12 cycles
 SCF Done:  E(RwB97XD) =  -1581.76314864     A.U. after   12 cycles
 SCF Done:  E(RwB97XD) =  -1581.76319198     A.U. after   12 cycles
 SCF Done:  E(RwB97XD) =  -1581.76320279     A.U. after   12 cycles
 SCF Done:  E(RwB97XD) =  -1581.76321256     A.U. after   11 cycles
 SCF Done:  E(RwB97XD) =  -1581.76321545     A.U. after    9 cycles
 SCF Done:  E(RwB97XD) =  -1581.76321599     A.U. after    8 cycles
 SCF Done:  E(RwB97XD) =  -1581.76321619     A.U. after    7 cycles
 SCF Done:  E(RwB97XD) =  -1581.76321628     A.U. after    6 cycles
 Optimization completed.
    -- Stationary point found.

                         Standard orientation:
 ---------------------------------------------------------------------
 Center     Atomic      Atomic             Coordinates (Angstroms)
 Number     Number       Type             X           Y           Z
 ---------------------------------------------------------------------
      1          6           0       -0.473367    4.275297   -0.771015
      2          6           0        0.871205    4.192525   -0.429930
      3          6           0        1.547561    2.990533   -0.631337
      4          6           0        0.821031    1.926607   -1.182499
      5          7           0       -0.467973    1.990456   -1.511434
      6          6           0       -1.096835    3.150471   -1.300084
      7          6           0        2.969465    2.789239   -0.253848
      8          6           0        3.900623    3.819100   -0.154819
      9          6           0        5.186557    3.446431    0.234964
     10          7           0        5.545773    2.197095    0.496400
     11          6           0        4.572211    1.274779    0.354469
     12          7           0        3.312152    1.523569   -0.001915
     13          7           0        4.960855   -0.011222    0.613177
     14          6           0        4.245051   -1.217274    0.494667
     15          6           0        4.968732   -2.427018    0.479880
     16          6           0        4.248054   -3.609821    0.338627
     17          6           0        2.862302   -3.650999    0.195692
     18          6           0        2.171126   -2.443395    0.217234
     19          6           0        2.859512   -1.243464    0.393674
     20          7           0        0.784605   -2.305322    0.039377
     21          6           0       -0.155461   -3.232405   -0.331132
     22          6           0       -1.474841   -2.600836   -0.675458
     23          6           0       -1.549877   -1.357714   -1.310704
     24          6           0       -2.782166   -0.778330   -1.574453
     25          6           0       -3.965607   -1.409607   -1.191718
     26          6           0       -3.884002   -2.677206   -0.608515
     27          6           0       -2.653929   -3.274219   -0.358289
     28          6           0       -5.302593   -0.703745   -1.348693
     29          7           0       -5.692706    0.226198   -0.299757
     30          6           0       -5.025848    1.522917   -0.247385
     31          6           0       -3.815816    1.577757    0.703014
     32          7           0       -4.112991    1.068539    2.038974
     33          6           0       -4.901783    1.977401    2.851625
     34          6           0       -4.679086   -0.274869    1.939714
     35          6           0       -5.914265   -0.340364    1.026057
     36          8           0        0.036420   -4.436274   -0.364882
     37          6           0        6.471502   -2.442919    0.599704
     38          1           0       -1.032751    5.191937   -0.618016
     39          1           0        1.376373    5.045519    0.014007
     40          1           0        1.325122    0.981309   -1.366794
     41          1           0       -2.151835    3.177370   -1.564273
     42          1           0        3.661740    4.850888   -0.380840
     43          1           0        5.968221    4.196498    0.337660
     44          1           0        5.942139   -0.077413    0.838811
     45          1           0        4.796216   -4.548544    0.325579
     46          1           0        2.333310   -4.585044    0.064983
     47          1           0        2.314529   -0.312047    0.418949
     48          1           0        0.446082   -1.358898    0.130896
     49          1           0       -0.653425   -0.832554   -1.627318
     50          1           0       -2.809966    0.191190   -2.065236
     51          1           0       -4.798768   -3.197132   -0.332436
     52          1           0       -2.590319   -4.256874    0.098435
     53          1           0       -5.308237   -0.148259   -2.294340
     54          1           0       -6.094956   -1.459532   -1.423355
     55          1           0       -4.724288    1.804648   -1.263386
     56          1           0       -5.767219    2.267920    0.078940
     57          1           0       -3.458676    2.611650    0.792808
     58          1           0       -2.990926    0.982775    0.295606
     59          1           0       -5.911886    2.205069    2.467740
     60          1           0       -4.364093    2.926766    2.952008
     61          1           0       -5.017384    1.550211    3.853723
     62          1           0       -4.937519   -0.623704    2.946930
     63          1           0       -3.897179   -0.938287    1.551931
     64          1           0       -6.742922    0.207965    1.498299
     65          1           0       -6.248019   -1.378150    0.914945
     66          1           0        6.816917   -2.031194    1.557909
     67          1           0        6.951942   -1.866719   -0.201730
     68          1           0        6.851673   -3.465596    0.536202
 ---------------------------------------------------------------------

 The electronic state is 1-A.
 Alpha  occ. eigenvalues --  -19.23411 -14.49282 -14.48321 -14.46751 -14.46096
 Alpha  occ. eigenvalues --  -14.45764 -14.43616 -14.43135 -10.41778 -10.40081
 Alpha  occ. eigenvalues --  -10.37615 -10.36338 -10.35325 -10.35084 -10.34623
 Alpha  occ. eigenvalues --  -10.34135 -10.34016 -10.33623 -10.32863 -10.32367
 Alpha  occ. eigenvalues --  -10.31860 -10.31492 -10.31178 -10.30935 -10.30707
 Alpha  occ. eigenvalues --  -10.30688 -10.30676 -10.30586 -10.30534 -10.30403
 Alpha  occ. eigenvalues --  -10.30377 -10.30220 -10.30020 -10.29974 -10.29575
 Alpha  occ. eigenvalues --  -10.28740 -10.28405  -1.13443  -1.12296  -1.06322
 Alpha  occ. eigenvalues --   -1.04565  -1.03829  -1.03634  -1.00716  -0.99557
 Alpha  occ. eigenvalues --   -0.96086  -0.94671  -0.93098  -0.89778  -0.88124
 Alpha  occ. eigenvalues --   -0.87388  -0.86228  -0.85399  -0.84541  -0.83783
 Alpha  occ. eigenvalues --   -0.81888  -0.79581  -0.78270  -0.77798  -0.76320
 Alpha  occ. eigenvalues --   -0.73881  -0.73301  -0.73025  -0.72621  -0.70870
 Alpha  occ. eigenvalues --   -0.70314  -0.69614  -0.68039  -0.66413  -0.65150
 Alpha  occ. eigenvalues --   -0.63656  -0.63408  -0.62228  -0.61762  -0.60211
 Alpha  occ. eigenvalues --   -0.58848  -0.58045  -0.57570  -0.56611  -0.56101
 Alpha  occ. eigenvalues --   -0.55817  -0.55236  -0.55134  -0.54964  -0.54255
 Alpha  occ. eigenvalues --   -0.53867  -0.53239  -0.53154  -0.52612  -0.52175
 Alpha  occ. eigenvalues --   -0.51912  -0.51509  -0.51370  -0.50999  -0.50575
 Alpha  occ. eigenvalues --   -0.50365  -0.50116  -0.49974  -0.49497  -0.48335
 Alpha  occ. eigenvalues --   -0.47217  -0.46906  -0.46619  -0.46319  -0.46211
 Alpha  occ. eigenvalues --   -0.45762  -0.45236  -0.44797  -0.44044  -0.43932
 Alpha  occ. eigenvalues --   -0.43328  -0.43016  -0.42141  -0.41766  -0.41439
 Alpha  occ. eigenvalues --   -0.40964  -0.40776  -0.39912  -0.38187  -0.37592
 Alpha  occ. eigenvalues --   -0.35821  -0.35293  -0.34002  -0.33446  -0.33373
 Alpha  occ. eigenvalues --   -0.32818  -0.31904  -0.30772  -0.29115  -0.27079
 Alpha  occ. eigenvalues --   -0.24996
 Alpha virt. eigenvalues --   -0.00291   0.02872   0.03585   0.04480   0.06434
 Alpha virt. eigenvalues --    0.07257   0.08204   0.10371   0.13887   0.14815
 Alpha virt. eigenvalues --    0.15729   0.16386   0.17252   0.17441   0.18252

 Mulliken atomic charges:
              1
     1  C   -0.197839
     2  C   -0.154397
     3  C    0.035525
     4  C    0.009574
     5  N   -0.437519
     6  C    0.035727
     7  C    0.295114
     8  C   -0.254771
     9  C    0.049022
    10  N   -0.493037
    11  C    0.714353
    12  N   -0.568371
    13  N   -0.802034
    14  C    0.291459
    15  C    0.119861
    16  C   -0.240380
    17  C   -0.191298
    18  C    0.358142
    19  C   -0.269702
    20  N   -0.757967
    21  C    0.585746
    22  C    0.015195
    23  C   -0.205364
    24  C   -0.217902
    25  C    0.155960
    26  C   -0.223079
    27  C   -0.178381
    28  C   -0.263553
    29  N   -0.382212
    30  C   -0.183905
    31  C   -0.181773
    32  N   -0.385716
    33  C   -0.349279
    34  C   -0.182639
    35  C   -0.186519
    36  O   -0.513287
    37  C   -0.607382
    38  H    0.186140
    39  H    0.186729
    40  H    0.198122
    41  H    0.179048
    42  H    0.180747
    43  H    0.189492
    44  H    0.369213
    45  H    0.160819
    46  H    0.213081
    47  H    0.199379
    48  H    0.361561
    49  H    0.185459
    50  H    0.172063
    51  H    0.163617
    52  H    0.195611
    53  H    0.170277
    54  H    0.168919
    55  H    0.148156
    56  H    0.158350
    57  H    0.141666
    58  H    0.174885
    59  H    0.135272
    60  H    0.164121
    61  H    0.167876
    62  H    0.153490
    63  H    0.172915
    64  H    0.159414
    65  H    0.154995
    66  H    0.178044
    67  H    0.182743
    68  H    0.190423
 Sum of Mulliken atomic charges =   0.00000

 Dipole moment (field-independent basis, Debye):
    X=              0.5809    Y=              6.5720    Z=              0.4339  Tot=              6.6119
 Quadrupole moment (field-independent basis, Debye-Ang):
   XX=           -193.2953   YY=           -202.5026   ZZ=           -220.4866
   XY=              3.1067   XZ=             -1.2844   YZ=             -5.2202

 Normal termination of Gaussian 09 at Tue Mar 10 13:07:33 2020.
