 Gaussian 09, Revision A.02,
 Gaussian 09:  EM64L-G09RevA.02 11-Jun-2009

 --------------------------------------------------
 #P opt=(,maxcycle=400) wB97XD/6-31G* MaxDisk=100GB
 --------------------------------------------------

 -----------------------------------------------------------------
 MOLECULE0 Rotatable Bond Optimization on g2-node38.bme.utexas.edu
 -----------------------------------------------------------------
 Symbolic Z-matrix:
 Charge =  0 Multiplicity = 1

 SCF Done:  E(RwB97XD) =  -1581.49846818     A.U. after   16 cycles
 SCF Done:  E(RwB97XD) =  -1581.55834250     A.U. after   13 cycles
 SCF Done:  E(RwB97XD) =  -1581.65724464     A.U. after   14 cycles
 SCF Done:  E(RwB97XD) =  -1581.70859378     A.U. after   14 cycles
 SCF Done:  E(RwB97XD) =  -1581.73023996     A.U. after   15 cycles
 SCF Done:  E(RwB97XD) =  -1581.73582873     A.U. after   14 cycles
 SCF Done:  E(RwB97XD) =  -1581.74141181     A.U. after   14 cycles
 SCF Done:  E(RwB97XD) =  -1581.74811926     A.U. after   16 cycles
 SCF Done:  E(RwB97XD) =  -1581.75377004     A.U. after   17 cycles
 SCF Done:  E(RwB97XD) =  -1581.75544272     A.U. after   14 cycles
 SCF Done:  E(RwB97XD) =  -1581.75760008     A.U. after   13 cycles
 SCF Done:  E(RwB97XD) =  -1581.75763719     A.U. after   13 cycles
 SCF Done:  E(RwB97XD) =  -1581.75764785     A.U. after   12 cycles
 SCF Done:  E(RwB97XD) =  -1581.75765850     A.U. after   12 cycles
 SCF Done:  E(RwB97XD) =  -1581.75766224     A.U. after   12 cycles
 SCF Done:  E(RwB97XD) =  -1581.75766331     A.U. after    8 cycles
 SCF Done:  E(RwB97XD) =  -1581.75766336     A.U. after    8 cycles
 SCF Done:  E(RwB97XD) =  -1581.75766341     A.U. after    8 cycles
 SCF Done:  E(RwB97XD) =  -1581.75766354     A.U. after    7 cycles
 SCF Done:  E(RwB97XD) =  -1581.75766356     A.U. after    7 cycles
 Optimization completed.
    -- Stationary point found.

                         Standard orientation:
 ---------------------------------------------------------------------
 Center     Atomic      Atomic             Coordinates (Angstroms)
 Number     Number       Type             X           Y           Z
 ---------------------------------------------------------------------
      1          6           0       -8.418837   -3.557333    0.179892
      2          6           0       -7.071605   -3.228216    0.118044
      3          6           0       -6.707838   -1.904737   -0.131347
      4          6           0       -7.738291   -0.972702   -0.301334
      5          7           0       -9.034079   -1.274754   -0.248568
      6          6           0       -9.357464   -2.548523   -0.010737
      7          6           0       -5.291588   -1.471819   -0.216149
      8          6           0       -4.257320   -2.360410   -0.539610
      9          6           0       -2.982039   -1.826515   -0.585135
     10          7           0       -2.708737   -0.543803   -0.346956
     11          6           0       -3.765655    0.224909   -0.059456
     12          7           0       -5.045521   -0.185573    0.017443
     13          7           0       -3.611139    1.559428    0.193990
     14          6           0       -2.481345    2.391573    0.239869
     15          6           0       -2.703570    3.754542    0.528942
     16          6           0       -1.596506    4.592602    0.585387
     17          6           0       -0.295695    4.149078    0.370222
     18          6           0       -0.099347    2.800497    0.083020
     19          6           0       -1.187957    1.926309    0.018505
     20          7           0        1.165119    2.235372   -0.174518
     21          6           0        2.403661    2.811000   -0.049416
     22          6           0        3.541991    1.909731   -0.437572
     23          6           0        3.437094    0.934029   -1.431864
     24          6           0        4.529562    0.133809   -1.744920
     25          6           0        5.740843    0.273346   -1.065921
     26          6           0        5.847947    1.280348   -0.103432
     27          6           0        4.766333    2.094150    0.205644
     28          6           0        6.905473   -0.666212   -1.343500
     29          7           0        6.967828   -1.911253   -0.596566
     30          6           0        6.003986   -2.952706   -0.931288
     31          6           0        4.734687   -2.931793   -0.062177
     32          7           0        5.021210   -2.915409    1.369348
     33          6           0        5.464509   -4.194317    1.895182
     34          6           0        5.918259   -1.805279    1.680788
     35          6           0        7.205854   -1.816654    0.839257
     36          8           0        2.598542    3.945882    0.353976
     37          6           0       -4.090899    4.294050    0.770274
     38          1           0       -8.737702   -4.574807    0.379614
     39          1           0       -6.316343   -3.990396    0.286041
     40          1           0       -7.487691    0.066754   -0.492465
     41          1           0      -10.421573   -2.769786    0.033927
     42          1           0       -4.435903   -3.403065   -0.769101
     43          1           0       -2.127205   -2.453408   -0.830692
     44          1           0       -4.496948    1.998263    0.395709
     45          1           0       -1.754660    5.644917    0.807162
     46          1           0        0.544449    4.825355    0.429909
     47          1           0       -1.040509    0.877070   -0.202184
     48          1           0        1.153449    1.245593   -0.370309
     49          1           0        2.514575    0.818203   -1.995199
     50          1           0        4.438842   -0.614482   -2.529012
     51          1           0        6.793585    1.425017    0.414050
     52          1           0        4.851046    2.882029    0.946936
     53          1           0        6.904884   -0.926956   -2.409170
     54          1           0        7.842689   -0.127918   -1.153858
     55          1           0        5.741939   -2.864396   -1.991883
     56          1           0        6.503348   -3.925622   -0.810263
     57          1           0        4.111617   -3.805772   -0.288683
     58          1           0        4.145675   -2.035923   -0.291098
     59          1           0        6.413791   -4.577627    1.480860
     60          1           0        4.691997   -4.947130    1.703166
     61          1           0        5.587301   -4.109455    2.980310
     62          1           0        6.166260   -1.841445    2.748453
     63          1           0        5.369435   -0.873369    1.501337
     64          1           0        7.823434   -2.676932    1.137857
     65          1           0        7.799061   -0.917738    1.041870
     66          1           0       -4.571405    3.828221    1.641193
     67          1           0       -4.750335    4.143939   -0.094913
     68          1           0       -4.053669    5.369185    0.962427
 ---------------------------------------------------------------------

 The electronic state is 1-A.
 Alpha  occ. eigenvalues --  -19.23835 -14.49107 -14.48930 -14.45876 -14.45799
 Alpha  occ. eigenvalues --  -14.45514 -14.43982 -14.43431 -10.41655 -10.40643
 Alpha  occ. eigenvalues --  -10.37349 -10.36104 -10.34702 -10.34393 -10.34203
 Alpha  occ. eigenvalues --  -10.34118 -10.33394 -10.32874 -10.32830 -10.32040
 Alpha  occ. eigenvalues --  -10.31770 -10.31686 -10.31685 -10.31551 -10.31527
 Alpha  occ. eigenvalues --  -10.31433 -10.31087 -10.31054 -10.30955 -10.30905
 Alpha  occ. eigenvalues --  -10.30883 -10.30836 -10.30326 -10.30025 -10.29494
 Alpha  occ. eigenvalues --  -10.28971 -10.28260  -1.13996  -1.12110  -1.05379
 Alpha  occ. eigenvalues --   -1.04481  -1.04201  -1.03830  -1.00483  -0.99923
 Alpha  occ. eigenvalues --   -0.96784  -0.94847  -0.92400  -0.89396  -0.88370
 Alpha  occ. eigenvalues --   -0.86927  -0.86375  -0.85823  -0.85248  -0.83767
 Alpha  occ. eigenvalues --   -0.82273  -0.79768  -0.78195  -0.77522  -0.76439
 Alpha  occ. eigenvalues --   -0.73617  -0.73258  -0.73109  -0.72545  -0.71281
 Alpha  occ. eigenvalues --   -0.70665  -0.69532  -0.68363  -0.66307  -0.65184
 Alpha  occ. eigenvalues --   -0.64057  -0.63280  -0.62733  -0.61368  -0.60205
 Alpha  occ. eigenvalues --   -0.58497  -0.58322  -0.57253  -0.56998  -0.55839
 Alpha  occ. eigenvalues --   -0.55619  -0.55451  -0.55280  -0.54768  -0.54398
 Alpha  occ. eigenvalues --   -0.54213  -0.53715  -0.53208  -0.53007  -0.52480
 Alpha  occ. eigenvalues --   -0.51674  -0.51503  -0.51430  -0.50966  -0.50670
 Alpha  occ. eigenvalues --   -0.50441  -0.49913  -0.49795  -0.49514  -0.48778
 Alpha  occ. eigenvalues --   -0.47361  -0.47084  -0.46919  -0.46631  -0.46104
 Alpha  occ. eigenvalues --   -0.45611  -0.45518  -0.45164  -0.44501  -0.43957
 Alpha  occ. eigenvalues --   -0.43308  -0.43118  -0.42790  -0.41907  -0.41524
 Alpha  occ. eigenvalues --   -0.41314  -0.41200  -0.39923  -0.38174  -0.37068
 Alpha  occ. eigenvalues --   -0.35196  -0.34831  -0.34012  -0.33665  -0.33470
 Alpha  occ. eigenvalues --   -0.32921  -0.32451  -0.31178  -0.29301  -0.26953
 Alpha  occ. eigenvalues --   -0.25326
 Alpha virt. eigenvalues --    0.00193   0.02800   0.03623   0.04855   0.05692
 Alpha virt. eigenvalues --    0.07772   0.08203   0.10865   0.14325   0.15255
 Alpha virt. eigenvalues --    0.16234   0.16759   0.17017   0.17538   0.18739

 Mulliken atomic charges:
              1
     1  C   -0.195845
     2  C   -0.158415
     3  C    0.036985
     4  C    0.011448
     5  N   -0.421687
     6  C    0.025480
     7  C    0.286560
     8  C   -0.252047
     9  C    0.054483
    10  N   -0.496301
    11  C    0.725545
    12  N   -0.571491
    13  N   -0.811915
    14  C    0.302196
    15  C    0.115190
    16  C   -0.238806
    17  C   -0.192969
    18  C    0.357761
    19  C   -0.279017
    20  N   -0.765657
    21  C    0.597308
    22  C    0.017430
    23  C   -0.209427
    24  C   -0.219322
    25  C    0.158478
    26  C   -0.222588
    27  C   -0.175782
    28  C   -0.264090
    29  N   -0.380743
    30  C   -0.184714
    31  C   -0.180787
    32  N   -0.385282
    33  C   -0.350124
    34  C   -0.182721
    35  C   -0.186499
    36  O   -0.512524
    37  C   -0.612583
    38  H    0.182097
    39  H    0.182372
    40  H    0.197704
    41  H    0.181238
    42  H    0.180061
    43  H    0.184718
    44  H    0.370049
    45  H    0.160837
    46  H    0.216014
    47  H    0.204899
    48  H    0.358758
    49  H    0.174244
    50  H    0.164686
    51  H    0.167253
    52  H    0.201014
    53  H    0.170623
    54  H    0.171670
    55  H    0.151193
    56  H    0.160986
    57  H    0.151117
    58  H    0.163731
    59  H    0.136022
    60  H    0.166220
    61  H    0.168405
    62  H    0.154769
    63  H    0.170053
    64  H    0.161038
    65  H    0.154280
    66  H    0.182757
    67  H    0.182034
    68  H    0.191630
 Sum of Mulliken atomic charges =   0.00000

 Dipole moment (field-independent basis, Debye):
    X=             -0.1698    Y=             -5.6408    Z=             -0.7510  Tot=              5.6931
 Quadrupole moment (field-independent basis, Debye-Ang):
   XX=           -210.3998   YY=           -203.7399   ZZ=           -215.8462
   XY=              5.3150   XZ=             -2.2248   YZ=              3.0061

 Normal termination of Gaussian 09 at Thu Feb 27 16:23:25 2020.
