 Gaussian 09, Revision A.02,
 Gaussian 09:  EM64L-G09RevA.02 11-Jun-2009

 --------------------------------------------------
 #P opt=(,maxcycle=400) wB97XD/6-31G* MaxDisk=100GB
 --------------------------------------------------

 --------------------------------------------------------------
 MOLECULE0 Rotatable Bond Optimization on node37.bme.utexas.edu
 --------------------------------------------------------------
 Symbolic Z-matrix:
 Charge =  0 Multiplicity = 1

 SCF Done:  E(RwB97XD) =  -1581.50960881     A.U. after   16 cycles
 SCF Done:  E(RwB97XD) =  -1581.57647542     A.U. after   14 cycles
 SCF Done:  E(RwB97XD) =  -1581.64039072     A.U. after   15 cycles
 SCF Done:  E(RwB97XD) =  -1581.72316078     A.U. after   16 cycles
 SCF Done:  E(RwB97XD) =  -1581.74125191     A.U. after   15 cycles
 SCF Done:  E(RwB97XD) =  -1581.73145125     A.U. after   17 cycles
 SCF Done:  E(RwB97XD) =  -1581.74922741     A.U. after   16 cycles
 SCF Done:  E(RwB97XD) =  -1581.75405020     A.U. after   16 cycles
 SCF Done:  E(RwB97XD) =  -1581.75343461     A.U. after   17 cycles
 SCF Done:  E(RwB97XD) =  -1581.75588593     A.U. after   17 cycles
 SCF Done:  E(RwB97XD) =  -1581.76402652     A.U. after   12 cycles
 SCF Done:  E(RwB97XD) =  -1581.76403145     A.U. after   10 cycles
 SCF Done:  E(RwB97XD) =  -1581.76403368     A.U. after    9 cycles
 SCF Done:  E(RwB97XD) =  -1581.76403453     A.U. after    9 cycles
 SCF Done:  E(RwB97XD) =  -1581.76403565     A.U. after   10 cycles
 SCF Done:  E(RwB97XD) =  -1581.76403645     A.U. after   10 cycles
 SCF Done:  E(RwB97XD) =  -1581.76403705     A.U. after    8 cycles
 SCF Done:  E(RwB97XD) =  -1581.76403717     A.U. after    7 cycles
 SCF Done:  E(RwB97XD) =  -1581.76403722     A.U. after    7 cycles
 SCF Done:  E(RwB97XD) =  -1581.76403721     A.U. after    6 cycles
 Optimization completed.
    -- Stationary point found.

                         Standard orientation:
 ---------------------------------------------------------------------
 Center     Atomic      Atomic             Coordinates (Angstroms)
 Number     Number       Type             X           Y           Z
 ---------------------------------------------------------------------
      1          6           0       -0.605104    4.168181   -0.064175
      2          6           0        0.773612    4.156566    0.105948
      3          6           0        1.476635    2.982308   -0.160780
      4          6           0        0.736729    1.874597   -0.598260
      5          7           0       -0.584595    1.868814   -0.753733
      6          6           0       -1.242057    3.003873   -0.486430
      7          6           0        2.940938    2.846949    0.030108
      8          6           0        3.830724    3.918255    0.087294
      9          6           0        5.169339    3.594519    0.297737
     10          7           0        5.621033    2.351777    0.420740
     11          6           0        4.680922    1.391961    0.324997
     12          7           0        3.376665    1.591144    0.153963
     13          7           0        5.149151    0.107671    0.418708
     14          6           0        4.459627   -1.101140    0.202941
     15          6           0        5.192210   -2.224505   -0.226547
     16          6           0        4.489297   -3.402945   -0.461230
     17          6           0        3.109303   -3.511138   -0.310553
     18          6           0        2.406232   -2.389976    0.124947
     19          6           0        3.087569   -1.206993    0.409624
     20          7           0        1.010505   -2.349668    0.313793
     21          6           0        0.063486   -3.225820   -0.153240
     22          6           0       -1.349332   -2.802674    0.136407
     23          6           0       -2.339515   -3.169730   -0.773865
     24          6           0       -3.661383   -2.805334   -0.552535
     25          6           0       -4.030738   -2.085431    0.585957
     26          6           0       -3.037594   -1.749844    1.507822
     27          6           0       -1.710027   -2.093203    1.285059
     28          6           0       -5.483537   -1.697517    0.819754
     29          7           0       -5.911331   -0.365118    0.434428
     30          6           0       -5.850923   -0.034512   -0.983772
     31          6           0       -4.584279    0.739487   -1.382018
     32          7           0       -4.365333    1.923039   -0.550319
     33          6           0       -5.286082    3.014948   -0.819764
     34          6           0       -4.310485    1.523871    0.854672
     35          6           0       -5.562098    0.751840    1.301511
     36          8           0        0.317075   -4.251075   -0.763248
     37          6           0        6.682173   -2.151213   -0.443468
     38          1           0       -1.183099    5.063341    0.141286
     39          1           0        1.288298    5.043174    0.466026
     40          1           0        1.258056    0.951382   -0.837132
     41          1           0       -2.323789    2.950488   -0.613034
     42          1           0        3.518555    4.947789   -0.036473
     43          1           0        5.920241    4.379279    0.364549
     44          1           0        6.155220    0.064468    0.480385
     45          1           0        5.041949   -4.276185   -0.798525
     46          1           0        2.589962   -4.430486   -0.540145
     47          1           0        2.541607   -0.341515    0.756102
     48          1           0        0.657854   -1.456878    0.627877
     49          1           0       -2.056853   -3.747629   -1.647779
     50          1           0       -4.424397   -3.097821   -1.270290
     51          1           0       -3.308301   -1.224998    2.421287
     52          1           0       -0.963992   -1.845604    2.035680
     53          1           0       -6.119481   -2.411968    0.281033
     54          1           0       -5.715237   -1.817949    1.884902
     55          1           0       -5.924447   -0.959733   -1.565512
     56          1           0       -6.736560    0.567662   -1.237176
     57          1           0       -4.646041    1.051432   -2.431327
     58          1           0       -3.701464    0.097765   -1.278052
     59          1           0       -6.348095    2.804786   -0.609041
     60          1           0       -5.204848    3.293976   -1.875769
     61          1           0       -4.994379    3.883495   -0.218142
     62          1           0       -4.180049    2.421095    1.472663
     63          1           0       -3.416321    0.901581    0.979157
     64          1           0       -6.415738    1.446326    1.326919
     65          1           0       -5.431903    0.379340    2.323660
     66          1           0        7.226740   -1.942761    0.487686
     67          1           0        6.950846   -1.370961   -1.166640
     68          1           0        7.062535   -3.100184   -0.830090
 ---------------------------------------------------------------------

 The electronic state is 1-A.
 Alpha  occ. eigenvalues --  -19.23556 -14.48723 -14.48567 -14.45460 -14.44977
 Alpha  occ. eigenvalues --  -14.44765 -14.44138 -14.43887 -10.41116 -10.40304
 Alpha  occ. eigenvalues --  -10.36857 -10.35717 -10.34350 -10.33982 -10.33482
 Alpha  occ. eigenvalues --  -10.32915 -10.32837 -10.32722 -10.32242 -10.31838
 Alpha  occ. eigenvalues --  -10.31575 -10.31415 -10.31339 -10.31311 -10.31297
 Alpha  occ. eigenvalues --  -10.31273 -10.31169 -10.31106 -10.30973 -10.30726
 Alpha  occ. eigenvalues --  -10.30583 -10.30492 -10.30242 -10.29844 -10.29421
 Alpha  occ. eigenvalues --  -10.28840 -10.28339  -1.13694  -1.11703  -1.04647
 Alpha  occ. eigenvalues --   -1.04395  -1.04049  -1.03464  -1.00138  -1.00023
 Alpha  occ. eigenvalues --   -0.96429  -0.94465  -0.91892  -0.88887  -0.88039
 Alpha  occ. eigenvalues --   -0.86392  -0.86118  -0.85845  -0.85004  -0.83467
 Alpha  occ. eigenvalues --   -0.82347  -0.79696  -0.78120  -0.77202  -0.75695
 Alpha  occ. eigenvalues --   -0.73776  -0.73098  -0.72603  -0.71673  -0.71038
 Alpha  occ. eigenvalues --   -0.70627  -0.69356  -0.68046  -0.66243  -0.64617
 Alpha  occ. eigenvalues --   -0.64071  -0.62982  -0.62089  -0.60747  -0.59869
 Alpha  occ. eigenvalues --   -0.58435  -0.57890  -0.56934  -0.56375  -0.55760
 Alpha  occ. eigenvalues --   -0.55570  -0.55417  -0.54931  -0.54689  -0.54306
 Alpha  occ. eigenvalues --   -0.54048  -0.53541  -0.53294  -0.52910  -0.52324
 Alpha  occ. eigenvalues --   -0.51325  -0.51263  -0.50941  -0.50650  -0.50494
 Alpha  occ. eigenvalues --   -0.50265  -0.49625  -0.49164  -0.48818  -0.48575
 Alpha  occ. eigenvalues --   -0.47283  -0.47189  -0.46797  -0.46459  -0.45869
 Alpha  occ. eigenvalues --   -0.45413  -0.45207  -0.44747  -0.44207  -0.43766
 Alpha  occ. eigenvalues --   -0.43346  -0.42640  -0.42508  -0.41969  -0.41447
 Alpha  occ. eigenvalues --   -0.41370  -0.40931  -0.39490  -0.37745  -0.36534
 Alpha  occ. eigenvalues --   -0.34521  -0.34376  -0.33745  -0.33305  -0.32953
 Alpha  occ. eigenvalues --   -0.32254  -0.32164  -0.31175  -0.28988  -0.27016
 Alpha  occ. eigenvalues --   -0.25577
 Alpha virt. eigenvalues --    0.00605   0.03184   0.04123   0.05506   0.06078
 Alpha virt. eigenvalues --    0.08110   0.08593   0.10659   0.14270   0.15048
 Alpha virt. eigenvalues --    0.16204   0.16663   0.16933   0.18005   0.18857

 Mulliken atomic charges:
              1
     1  C   -0.201460
     2  C   -0.158952
     3  C    0.030054
     4  C   -0.001198
     5  N   -0.435058
     6  C    0.012231
     7  C    0.296502
     8  C   -0.253092
     9  C    0.046137
    10  N   -0.493828
    11  C    0.700756
    12  N   -0.566150
    13  N   -0.790273
    14  C    0.284759
    15  C    0.122408
    16  C   -0.240668
    17  C   -0.186855
    18  C    0.351635
    19  C   -0.258332
    20  N   -0.762692
    21  C    0.588980
    22  C    0.019439
    23  C   -0.174029
    24  C   -0.222866
    25  C    0.158316
    26  C   -0.216597
    27  C   -0.202561
    28  C   -0.267479
    29  N   -0.382148
    30  C   -0.186833
    31  C   -0.184048
    32  N   -0.393841
    33  C   -0.352080
    34  C   -0.184468
    35  C   -0.181594
    36  O   -0.511641
    37  C   -0.604388
    38  H    0.175086
    39  H    0.178087
    40  H    0.197064
    41  H    0.218973
    42  H    0.178680
    43  H    0.186357
    44  H    0.366480
    45  H    0.160425
    46  H    0.212409
    47  H    0.191950
    48  H    0.363588
    49  H    0.199347
    50  H    0.165262
    51  H    0.162878
    52  H    0.174386
    53  H    0.170822
    54  H    0.171341
    55  H    0.158444
    56  H    0.159161
    57  H    0.156981
    58  H    0.187076
    59  H    0.144173
    60  H    0.171642
    61  H    0.162080
    62  H    0.150155
    63  H    0.175562
    64  H    0.159384
    65  H    0.154210
    66  H    0.176601
    67  H    0.184445
    68  H    0.188866
 Sum of Mulliken atomic charges =   0.00000

 Dipole moment (field-independent basis, Debye):
    X=             -0.9911    Y=              5.3052    Z=              1.5283  Tot=              5.6092
 Quadrupole moment (field-independent basis, Debye-Ang):
   XX=           -192.0620   YY=           -207.5154   ZZ=           -213.4591
   XY=             -0.0217   XZ=             -0.3620   YZ=              1.6087

 Normal termination of Gaussian 09 at Thu Apr  9 00:39:42 2020.
