 Gaussian 09, Revision A.02,
 Gaussian 09:  EM64L-G09RevA.02 11-Jun-2009

 --------------------------------------------------
 #P opt=(,maxcycle=400) wB97XD/6-31G* MaxDisk=100GB
 --------------------------------------------------

 -----------------------------------------------------------------
 MOLECULE0 Rotatable Bond Optimization on g2-node38.bme.utexas.edu
 -----------------------------------------------------------------
 Symbolic Z-matrix:
 Charge =  0 Multiplicity = 1

 SCF Done:  E(RwB97XD) =  -1581.46583386     A.U. after   16 cycles
 SCF Done:  E(RwB97XD) =  -1581.53320136     A.U. after   13 cycles
 SCF Done:  E(RwB97XD) =  -1581.64419163     A.U. after   14 cycles
 SCF Done:  E(RwB97XD) =  -1581.70141073     A.U. after   14 cycles
 SCF Done:  E(RwB97XD) =  -1581.72455564     A.U. after   17 cycles
 SCF Done:  E(RwB97XD) =  -1581.71773636     A.U. after   15 cycles
 SCF Done:  E(RwB97XD) =  -1581.73809895     A.U. after   14 cycles
 SCF Done:  E(RwB97XD) =  -1581.75191192     A.U. after   14 cycles
 SCF Done:  E(RwB97XD) =  -1581.75676467     A.U. after   14 cycles
 SCF Done:  E(RwB97XD) =  -1581.75852208     A.U. after   16 cycles
 SCF Done:  E(RwB97XD) =  -1581.76151573     A.U. after   13 cycles
 SCF Done:  E(RwB97XD) =  -1581.76157644     A.U. after   12 cycles
 SCF Done:  E(RwB97XD) =  -1581.76160347     A.U. after   12 cycles
 SCF Done:  E(RwB97XD) =  -1581.76161973     A.U. after   12 cycles
 SCF Done:  E(RwB97XD) =  -1581.76162799     A.U. after   12 cycles
 SCF Done:  E(RwB97XD) =  -1581.76163124     A.U. after   11 cycles
 SCF Done:  E(RwB97XD) =  -1581.76163264     A.U. after   11 cycles
 SCF Done:  E(RwB97XD) =  -1581.76163387     A.U. after   10 cycles
 SCF Done:  E(RwB97XD) =  -1581.76163413     A.U. after    7 cycles
 SCF Done:  E(RwB97XD) =  -1581.76163410     A.U. after    6 cycles
 Optimization completed.
    -- Stationary point found.

                         Standard orientation:
 ---------------------------------------------------------------------
 Center     Atomic      Atomic             Coordinates (Angstroms)
 Number     Number       Type             X           Y           Z
 ---------------------------------------------------------------------
      1          6           0       -1.226874    4.807122   -0.670670
      2          6           0       -2.527919    4.351437   -0.496099
      3          6           0       -2.732961    3.055684   -0.025378
      4          6           0       -1.597517    2.284380    0.256772
      5          7           0       -0.345426    2.703833    0.084663
      6          6           0       -0.174611    3.946576   -0.376710
      7          6           0       -4.081168    2.457877    0.141287
      8          6           0       -5.243967    3.198543    0.334399
      9          6           0       -6.425611    2.465864    0.440722
     10          7           0       -6.481322    1.142119    0.383058
     11          6           0       -5.295374    0.522020    0.216774
     12          7           0       -4.114448    1.124431    0.084512
     13          7           0       -5.362342   -0.843480    0.183204
     14          6           0       -4.332096   -1.801249    0.128452
     15          6           0       -4.639926   -3.127493    0.493058
     16          6           0       -3.610404   -4.063043    0.456873
     17          6           0       -2.302347   -3.748539    0.095781
     18          6           0       -2.023436   -2.433479   -0.267286
     19          6           0       -3.040390   -1.478277   -0.272979
     20          7           0       -0.750979   -1.955766   -0.628924
     21          6           0        0.464971   -2.583670   -0.557853
     22          6           0        1.634250   -1.685821   -0.852965
     23          6           0        1.620920   -0.305922   -0.629359
     24          6           0        2.738681    0.461847   -0.932832
     25          6           0        3.894945   -0.121221   -1.451670
     26          6           0        3.899125   -1.501738   -1.669752
     27          6           0        2.790485   -2.278585   -1.362953
     28          6           0        5.126418    0.720826   -1.753160
     29          7           0        6.111291    0.906440   -0.701451
     30          6           0        6.909656   -0.251449   -0.315704
     31          6           0        6.334354   -1.032996    0.877840
     32          7           0        6.042845   -0.183136    2.029319
     33          6           0        7.224120    0.246555    2.756095
     34          6           0        5.165892    0.912282    1.625268
     35          6           0        5.724216    1.722882    0.443287
     36          8           0        0.608247   -3.768081   -0.300641
     37          6           0       -6.031314   -3.520927    0.920066
     38          1           0       -1.029992    5.805870   -1.045215
     39          1           0       -3.369897    4.988438   -0.751612
     40          1           0       -1.724219    1.278317    0.647830
     41          1           0        0.855086    4.265991   -0.519548
     42          1           0       -5.245344    4.278412    0.416458
     43          1           0       -7.376948    2.974169    0.584360
     44          1           0       -6.299789   -1.186241    0.331004
     45          1           0       -3.835448   -5.089281    0.736099
     46          1           0       -1.520440   -4.494438    0.099137
     47          1           0       -2.820803   -0.461757   -0.563034
     48          1           0       -0.737224   -0.997531   -0.944134
     49          1           0        0.763064    0.198615   -0.191759
     50          1           0        2.703318    1.533384   -0.750746
     51          1           0        4.786559   -1.973865   -2.085417
     52          1           0        2.798343   -3.352422   -1.519214
     53          1           0        5.649108    0.279970   -2.611292
     54          1           0        4.797550    1.719750   -2.066907
     55          1           0        7.020120   -0.910882   -1.184126
     56          1           0        7.918938    0.104362   -0.059331
     57          1           0        7.036526   -1.816842    1.186499
     58          1           0        5.399595   -1.523898    0.582862
     59          1           0        7.925221    0.885318    2.190257
     60          1           0        7.777648   -0.637348    3.091405
     61          1           0        6.912821    0.803780    3.646544
     62          1           0        5.001379    1.570553    2.486939
     63          1           0        4.197185    0.478140    1.352277
     64          1           0        6.613189    2.278412    0.777819
     65          1           0        4.991828    2.468820    0.114049
     66          1           0       -6.771379   -3.364050    0.123319
     67          1           0       -6.365033   -2.955773    1.799957
     68          1           0       -6.066991   -4.581358    1.182148
 ---------------------------------------------------------------------

 The electronic state is 1-A.
 Alpha  occ. eigenvalues --  -19.23347 -14.49256 -14.48457 -14.46728 -14.46087
 Alpha  occ. eigenvalues --  -14.45740 -14.43379 -14.42722 -10.41748 -10.40127
 Alpha  occ. eigenvalues --  -10.37599 -10.36338 -10.35289 -10.35028 -10.34637
 Alpha  occ. eigenvalues --  -10.34135 -10.34068 -10.33598 -10.32848 -10.32292
 Alpha  occ. eigenvalues --  -10.31856 -10.31038 -10.30996 -10.30955 -10.30710
 Alpha  occ. eigenvalues --  -10.30699 -10.30370 -10.30280 -10.30256 -10.30234
 Alpha  occ. eigenvalues --  -10.30232 -10.30117 -10.30111 -10.30033 -10.29533
 Alpha  occ. eigenvalues --  -10.28847 -10.28336  -1.13492  -1.12301  -1.06306
 Alpha  occ. eigenvalues --   -1.04558  -1.03603  -1.03553  -1.00718  -0.99258
 Alpha  occ. eigenvalues --   -0.96019  -0.94682  -0.93090  -0.89763  -0.88059
 Alpha  occ. eigenvalues --   -0.87362  -0.86238  -0.85108  -0.84471  -0.83761
 Alpha  occ. eigenvalues --   -0.81666  -0.79492  -0.78258  -0.77659  -0.76306
 Alpha  occ. eigenvalues --   -0.73858  -0.72955  -0.72946  -0.72598  -0.70813
 Alpha  occ. eigenvalues --   -0.70268  -0.69519  -0.67961  -0.66409  -0.65193
 Alpha  occ. eigenvalues --   -0.63616  -0.63255  -0.62260  -0.61800  -0.60197
 Alpha  occ. eigenvalues --   -0.58814  -0.57958  -0.57454  -0.56468  -0.56069
 Alpha  occ. eigenvalues --   -0.55802  -0.55145  -0.54950  -0.54631  -0.54225
 Alpha  occ. eigenvalues --   -0.53567  -0.53187  -0.52973  -0.52334  -0.52180
 Alpha  occ. eigenvalues --   -0.51854  -0.51495  -0.51333  -0.50900  -0.50592
 Alpha  occ. eigenvalues --   -0.50458  -0.50178  -0.49951  -0.49426  -0.48310
 Alpha  occ. eigenvalues --   -0.47275  -0.46728  -0.46452  -0.46284  -0.45987
 Alpha  occ. eigenvalues --   -0.45575  -0.44873  -0.44525  -0.43927  -0.43717
 Alpha  occ. eigenvalues --   -0.43439  -0.43047  -0.42064  -0.41690  -0.41204
 Alpha  occ. eigenvalues --   -0.40646  -0.40591  -0.39936  -0.38200  -0.37598
 Alpha  occ. eigenvalues --   -0.35782  -0.35283  -0.33997  -0.33447  -0.33339
 Alpha  occ. eigenvalues --   -0.32836  -0.31833  -0.30557  -0.29157  -0.27089
 Alpha  occ. eigenvalues --   -0.24671
 Alpha virt. eigenvalues --   -0.00297   0.02900   0.03363   0.04521   0.06516
 Alpha virt. eigenvalues --    0.07280   0.08337   0.10416   0.14540   0.14890
 Alpha virt. eigenvalues --    0.15955   0.16292   0.17361   0.17725   0.18683

 Mulliken atomic charges:
              1
     1  C   -0.197811
     2  C   -0.155240
     3  C    0.035185
     4  C    0.006895
     5  N   -0.435301
     6  C    0.031075
     7  C    0.295589
     8  C   -0.255118
     9  C    0.048866
    10  N   -0.492948
    11  C    0.712222
    12  N   -0.567547
    13  N   -0.799980
    14  C    0.290031
    15  C    0.119878
    16  C   -0.240161
    17  C   -0.189953
    18  C    0.357122
    19  C   -0.267484
    20  N   -0.767236
    21  C    0.599439
    22  C    0.016449
    23  C   -0.208129
    24  C   -0.228610
    25  C    0.159712
    26  C   -0.223314
    27  C   -0.176853
    28  C   -0.262971
    29  N   -0.380703
    30  C   -0.186283
    31  C   -0.183428
    32  N   -0.383585
    33  C   -0.349532
    34  C   -0.182816
    35  C   -0.184779
    36  O   -0.516482
    37  C   -0.608201
    38  H    0.186489
    39  H    0.186331
    40  H    0.201294
    41  H    0.181244
    42  H    0.180750
    43  H    0.189378
    44  H    0.369156
    45  H    0.160918
    46  H    0.215616
    47  H    0.195937
    48  H    0.359668
    49  H    0.188294
    50  H    0.166913
    51  H    0.163887
    52  H    0.198338
    53  H    0.168955
    54  H    0.166649
    55  H    0.152156
    56  H    0.159060
    57  H    0.153107
    58  H    0.173786
    59  H    0.133782
    60  H    0.167293
    61  H    0.166559
    62  H    0.152239
    63  H    0.173966
    64  H    0.158550
    65  H    0.149568
    66  H    0.177724
    67  H    0.183637
    68  H    0.190758
 Sum of Mulliken atomic charges =   0.00000

 Dipole moment (field-independent basis, Debye):
    X=             -2.5380    Y=              6.1215    Z=             -1.0828  Tot=              6.7147
 Quadrupole moment (field-independent basis, Debye-Ang):
   XX=           -189.8174   YY=           -196.2246   ZZ=           -219.0789
   XY=             -6.1423   XZ=             -5.5520   YZ=             -1.6381

 Normal termination of Gaussian 09 at Tue Mar 10 16:16:53 2020.
