                               Psi4 1.3.2 release

  ==> Input File <==

--------------------------------------------------------------------------
molecule {
0 1
 C    0.121211    4.605334   -1.638314
 C    1.441175    4.484978   -1.181335
 C    1.982958    3.210330   -0.921308
 C    1.121945    2.114487   -1.179193
 N   -0.138280    2.206445   -1.622587
 C   -0.624355    3.437987   -1.839213
 C    3.391444    2.984822   -0.426820
 C    4.366584    3.978361   -0.245235
 C    5.621653    3.525286    0.177495
 N    5.920533    2.252380    0.422575
 C    4.915062    1.368898    0.249955
 N    3.686394    1.698262   -0.158852
 N    5.224970    0.044952    0.529187
 C    4.485666   -1.188796    0.410304
 C    5.181184   -2.435529    0.436505
 C    4.411749   -3.602558    0.286360
 C    3.020769   -3.607567    0.125129
 C    2.350564   -2.380330    0.137762
 C    3.092753   -1.196504    0.271510
 N    0.940405   -2.187600   -0.005289
 C   -0.070949   -3.060044   -0.330022
 C   -1.421286   -2.451952   -0.657491
 C   -1.567123   -1.226973   -1.330205
 C   -2.836180   -0.692770   -1.558594
 C   -4.002055   -1.366812   -1.148840
 C   -3.841839   -2.609715   -0.506608
 C   -2.576035   -3.152155   -0.272604
 C   -5.385517   -0.741113   -1.338202
 N   -5.877821    0.231910   -0.340436
 C   -4.965712    1.296297    0.140514
 C   -4.190757    0.941171    1.436615
 N   -5.040506    0.475376    2.557296
 C   -5.669611    1.517740    3.375525
 C   -5.929000   -0.602933    2.064104
 C   -6.719794   -0.256830    0.776283
 O    0.083070   -4.271094   -0.340655
 C    6.688719   -2.548564    0.585411
 H   -0.318943    5.578256   -1.836178
 H    2.016072    5.394160   -1.023097
 H    1.484018    1.101118   -1.045398
 H   -1.651563    3.488048   -2.197340
 H    4.205540    5.031310   -0.441424
 H    6.438912    4.231196    0.323354
 H    6.197709   -0.028178    0.786906
 H    4.910810   -4.570928    0.284270
 H    2.464916   -4.529815    0.006513
 H    2.581787   -0.247512    0.277206
 H    0.646429   -1.224609    0.079697
 H   -0.685392   -0.674831   -1.647385
 H   -2.907080    0.275742   -2.052873
 H   -4.716412   -3.165467   -0.169199
 H   -2.461180   -4.107807    0.232813
 H   -5.416376   -0.231819   -2.312127
 H   -6.116512   -1.561626   -1.379465
 H   -4.371806    1.613824   -0.596691
 H   -5.876829    2.531925    0.534351
 H   -3.460759    2.127288    1.861551
 H   -3.279211   -0.050364    1.167468
 H   -6.392630    2.096129    2.789425
 H   -4.907488    2.199692    3.769474
 H   -6.187652    1.066538    4.229624
 H   -6.868060   -0.937244    3.094404
 H   -5.126552   -1.729633    1.809764
 H   -7.679504    0.923861    1.180357
 H   -7.337846   -1.044388    0.461196
 H    7.026399   -2.152193    1.553417
 H    7.214472   -1.990105   -0.201931
 H    7.048951   -3.584946    0.527451
}
memory 20GB
set_num_threads(6)
psi4_io.set_default_path("/scratch/bdw2292")
set freeze_core True
E, wfn = energy('mp2/6-311++G**',return_wfn=True)
oeprop(wfn,"WIBERG_LOWDIN_INDICES")
clean()
--------------------------------------------------------------------------

    Molecular point group: c1

    Geometry (in Angstrom), charge = 0, multiplicity = 1:

       Center              X                  Y                   Z               Mass
    ------------   -----------------  -----------------  -----------------  -----------------
         C           -0.005078592736     4.589499203403    -1.587307882656    12.000000000000
         C            1.314885407264     4.469143203403    -1.130328882656    12.000000000000
         C            1.856668407264     3.194495203403    -0.870301882656    12.000000000000
         C            0.995655407264     2.098652203403    -1.128186882656    12.000000000000
         N           -0.264569592736     2.190610203403    -1.571580882656    14.003074004430
         C           -0.750644592736     3.422152203403    -1.788206882656    12.000000000000
         C            3.265154407264     2.968987203403    -0.375813882656    12.000000000000
         C            4.240294407264     3.962526203403    -0.194228882656    12.000000000000
         C            5.495363407264     3.509451203403     0.228501117344    12.000000000000
         N            5.794243407264     2.236545203403     0.473581117344    14.003074004430
         C            4.788772407264     1.353063203403     0.300961117344    12.000000000000
         N            3.560104407264     1.682427203403    -0.107845882656    14.003074004430
         N            5.098680407264     0.029117203403     0.580193117344    14.003074004430
         C            4.359376407264    -1.204630796597     0.461310117344    12.000000000000
         C            5.054894407264    -2.451363796597     0.487511117344    12.000000000000
         C            4.285459407264    -3.618392796597     0.337366117344    12.000000000000
         C            2.894479407264    -3.623401796597     0.176135117344    12.000000000000
         C            2.224274407264    -2.396164796597     0.188768117344    12.000000000000
         C            2.966463407264    -1.212338796597     0.322516117344    12.000000000000
         N            0.814115407264    -2.203434796597     0.045717117344    14.003074004430
         C           -0.197238592736    -3.075878796597    -0.279015882656    12.000000000000
         C           -1.547575592736    -2.467786796597    -0.606484882656    12.000000000000
         C           -1.693412592736    -1.242807796597    -1.279198882656    12.000000000000
         C           -2.962469592736    -0.708604796597    -1.507587882656    12.000000000000
         C           -4.128344592736    -1.382646796597    -1.097833882656    12.000000000000
         C           -3.968128592736    -2.625549796597    -0.455601882656    12.000000000000
         C           -2.702324592736    -3.167989796597    -0.221597882656    12.000000000000
         C           -5.511806592736    -0.756947796597    -1.287195882656    12.000000000000
         N           -6.004110592736     0.216075203403    -0.289429882656    14.003074004430
         C           -5.092001592736     1.280462203403     0.191520117344    12.000000000000
         C           -4.317046592736     0.925336203403     1.487621117344    12.000000000000
         N           -5.166795592736     0.459541203403     2.608302117344    14.003074004430
         C           -5.795900592736     1.501905203403     3.426531117344    12.000000000000
         C           -6.055289592736    -0.618767796597     2.115110117344    12.000000000000
         C           -6.846083592736    -0.272664796597     0.827289117344    12.000000000000
         O           -0.043219592736    -4.286928796597    -0.289648882656    15.994914619570
         C            6.562429407264    -2.564398796597     0.636417117344    12.000000000000
         H           -0.445232592736     5.562421203403    -1.785171882656     1.007825032230
         H            1.889782407264     5.378325203403    -0.972090882656     1.007825032230
         H            1.357728407264     1.085283203403    -0.994391882656     1.007825032230
         H           -1.777852592736     3.472213203403    -2.146333882656     1.007825032230
         H            4.079250407264     5.015475203403    -0.390417882656     1.007825032230
         H            6.312622407264     4.215361203403     0.374360117344     1.007825032230
         H            6.071419407264    -0.044012796597     0.837912117344     1.007825032230
         H            4.784520407264    -4.586762796597     0.335276117344     1.007825032230
         H            2.338626407264    -4.545649796597     0.057519117344     1.007825032230
         H            2.455497407264    -0.263346796597     0.328212117344     1.007825032230
         H            0.520139407264    -1.240443796597     0.130703117344     1.007825032230
         H           -0.811681592736    -0.690665796597    -1.596378882656     1.007825032230
         H           -3.033369592736     0.259907203403    -2.001866882656     1.007825032230
         H           -4.842701592736    -3.181301796597    -0.118192882656     1.007825032230
         H           -2.587469592736    -4.123641796597     0.283819117344     1.007825032230
         H           -5.542665592736    -0.247653796597    -2.261120882656     1.007825032230
         H           -6.242801592736    -1.577460796597    -1.328458882656     1.007825032230
         H           -4.498095592736     1.597989203403    -0.545684882656     1.007825032230
         H           -6.003118592736     2.516090203403     0.585357117344     1.007825032230
         H           -3.587048592736     2.111453203403     1.912557117344     1.007825032230
         H           -3.405500592736    -0.066198796597     1.218474117344     1.007825032230
         H           -6.518919592736     2.080294203403     2.840431117344     1.007825032230
         H           -5.033777592736     2.183857203403     3.820480117344     1.007825032230
         H           -6.313941592736     1.050703203403     4.280630117344     1.007825032230
         H           -6.994349592736    -0.953078796597     3.145410117344     1.007825032230
         H           -5.252841592736    -1.745467796597     1.860770117344     1.007825032230
         H           -7.805793592736     0.908026203403     1.231363117344     1.007825032230
         H           -7.464135592736    -1.060222796597     0.512202117344     1.007825032230
         H            6.900109407264    -2.168027796597     1.604423117344     1.007825032230
         H            7.088182407264    -2.005939796597    -0.150924882656     1.007825032230
         H            6.922661407264    -3.600780796597     0.578457117344     1.007825032230

  Charge       = 0
  Multiplicity = 1
  Basis Set: 6-311++G**
    Blend: 6-311++G**
  Basis Set: (6-311++G** AUX)
    Blend: AUG-CC-PVTZ-JKFIT

    Orbital Energies [Eh]
    ---------------------

    Doubly Occupied:

       1A    -20.522731     2A    -15.604784     3A    -15.602482
       4A    -15.588479     5A    -15.575229     6A    -15.573071
       7A    -15.569953     8A    -15.559979     9A    -11.376519
      10A    -11.365098    11A    -11.335461    12A    -11.324491
      13A    -11.320966    14A    -11.315070    15A    -11.305475
      16A    -11.302569    17A    -11.302175    18A    -11.301831
      19A    -11.300735    20A    -11.293371    21A    -11.290417
      22A    -11.282236    23A    -11.281645    24A    -11.266657
      25A    -11.260243    26A    -11.258970    27A    -11.255080
      28A    -11.253467    29A    -11.251823    30A    -11.248173
      31A    -11.247857    32A    -11.247694    33A    -11.244855
      34A    -11.240736    35A    -11.235867    36A    -11.231121
      37A    -11.225750    38A     -1.387777    39A     -1.345199
      40A     -1.279820    41A     -1.252544    42A     -1.248469
      43A     -1.242152    44A     -1.210602    45A     -1.202467
      46A     -1.164115    47A     -1.140372    48A     -1.116729
      49A     -1.076342    50A     -1.061847    51A     -1.049635
      52A     -1.038843    53A     -1.025852    54A     -1.008647
      55A     -1.002465    56A     -0.979044    57A     -0.947030
      58A     -0.928524    59A     -0.927408    60A     -0.901739
      61A     -0.873759    62A     -0.869706    63A     -0.859004
      64A     -0.845156    65A     -0.838745    66A     -0.832973
      67A     -0.826737    68A     -0.807350    69A     -0.779220
      70A     -0.755011    71A     -0.740434    72A     -0.732299
      73A     -0.722804    74A     -0.711553    75A     -0.700449
      76A     -0.683870    77A     -0.679787    78A     -0.668952
      79A     -0.662343    80A     -0.658510    81A     -0.652592
      82A     -0.648944    83A     -0.638813    84A     -0.630970
      85A     -0.623959    86A     -0.619950    87A     -0.613886
      88A     -0.607400    89A     -0.605604    90A     -0.603515
      91A     -0.599805    92A     -0.597392    93A     -0.592766
      94A     -0.591037    95A     -0.584320    96A     -0.582704
      97A     -0.581010    98A     -0.574636    99A     -0.562617
     100A     -0.558168   101A     -0.548214   102A     -0.545481
     103A     -0.542952   104A     -0.531810   105A     -0.524748
     106A     -0.520519   107A     -0.515090   108A     -0.509790
     109A     -0.507884   110A     -0.505940   111A     -0.499957
     112A     -0.494380   113A     -0.485442   114A     -0.482119
     115A     -0.453052   116A     -0.444364   117A     -0.440045
     118A     -0.430275   119A     -0.427338   120A     -0.423323
     121A     -0.415489   122A     -0.401304   123A     -0.390563
     124A     -0.383285   125A     -0.374583   126A     -0.348610
     127A     -0.347175   128A     -0.343671   129A     -0.316091
     130A     -0.313911   131A     -0.290977

  @DF-RHF Final Energy: -1572.27316606467821

   => Energetics <=

    Nuclear Repulsion Energy =           3755.5874808168582604
    One-Electron Energy =               -9608.9656846621328441
    Two-Electron Energy =                4281.1050377805959215
    Total Energy =                      -1572.2731660646786622

  Dipole Moment: [D]
     X:     1.2822      Y:     6.4303      Z:    -0.9071     Total:     6.6193

  Basis Set: (6-311++G** AUX)
    Blend: AUG-CC-PVTZ-RI
	 Reference Energy          =   -1572.2731660646782075 [Eh]
	 Singles Energy            =      -0.0000000000000000 [Eh]
	 Same-Spin Energy          =      -1.4723033827479193 [Eh]
	 Opposite-Spin Energy      =      -4.0527710693702730 [Eh]
	 Correlation Energy        =      -5.5250744521181918 [Eh]
	 Total Energy              =   -1577.7982405167963407 [Eh]

	 ================> DF-SCS-MP2 Energies <==================
	-----------------------------------------------------------
	 SCS Same-Spin Scale       =       0.3333333333333333 [-]
	 SCS Opposite-Spin Scale   =       1.2000000000000000 [-]
	 SCS Same-Spin Energy      =      -0.4907677942493064 [Eh]
	 SCS Opposite-Spin Energy  =      -4.8633252832443272 [Eh]
	 SCS Correlation Energy    =      -5.3540930774936335 [Eh]
	 SCS Total Energy          =   -1577.6272591421718516 [Eh]
	-----------------------------------------------------------

*** Psi4 exiting successfully. Buy a developer a beer!
