 Gaussian 09, Revision A.02,
 Gaussian 09:  EM64L-G09RevA.02 11-Jun-2009

 --------------------------------------------------
 #P opt=(,maxcycle=400) wB97XD/6-31G* MaxDisk=100GB
 --------------------------------------------------

 --------------------------------------------------------------
 MOLECULE0 Rotatable Bond Optimization on node37.bme.utexas.edu
 --------------------------------------------------------------
 Symbolic Z-matrix:
 Charge =  0 Multiplicity = 1

 SCF Done:  E(RwB97XD) =  -1581.45514088     A.U. after   16 cycles
 SCF Done:  E(RwB97XD) =  -1581.52449076     A.U. after   14 cycles
 SCF Done:  E(RwB97XD) =  -1581.63161905     A.U. after   14 cycles
 SCF Done:  E(RwB97XD) =  -1581.71577473     A.U. after   17 cycles
 SCF Done:  E(RwB97XD) =  -1581.74656808     A.U. after   16 cycles
 SCF Done:  E(RwB97XD) =  -1581.74455955     A.U. after   17 cycles
 SCF Done:  E(RwB97XD) =  -1581.75222550     A.U. after   14 cycles
 SCF Done:  E(RwB97XD) =  -1581.75394762     A.U. after   14 cycles
 SCF Done:  E(RwB97XD) =  -1581.75655861     A.U. after   15 cycles
 SCF Done:  E(RwB97XD) =  -1581.75731368     A.U. after   14 cycles
 SCF Done:  E(RwB97XD) =  -1581.76315650     A.U. after   12 cycles
 SCF Done:  E(RwB97XD) =  -1581.76315997     A.U. after   13 cycles
 SCF Done:  E(RwB97XD) =  -1581.76320150     A.U. after   12 cycles
 SCF Done:  E(RwB97XD) =  -1581.76321391     A.U. after   12 cycles
 SCF Done:  E(RwB97XD) =  -1581.76321493     A.U. after   11 cycles
 SCF Done:  E(RwB97XD) =  -1581.76321531     A.U. after    8 cycles
 SCF Done:  E(RwB97XD) =  -1581.76321613     A.U. after    7 cycles
 SCF Done:  E(RwB97XD) =  -1581.76321576     A.U. after    7 cycles
 SCF Done:  E(RwB97XD) =  -1581.76321589     A.U. after    6 cycles
 SCF Done:  E(RwB97XD) =  -1581.76321600     A.U. after    6 cycles
 Optimization completed.
    -- Stationary point found.

                         Standard orientation:
 ---------------------------------------------------------------------
 Center     Atomic      Atomic             Coordinates (Angstroms)
 Number     Number       Type             X           Y           Z
 ---------------------------------------------------------------------
      1          6           0       -0.473978    4.274851   -0.772061
      2          6           0        0.870535    4.192312   -0.430659
      3          6           0        1.547058    2.990343   -0.631595
      4          6           0        0.820733    1.926147   -1.182517
      5          7           0       -0.468203    1.989764   -1.511739
      6          6           0       -1.097214    3.149805   -1.300921
      7          6           0        2.968908    2.789338   -0.253807
      8          6           0        3.899844    3.819384   -0.154656
      9          6           0        5.185777    3.446967    0.235389
     10          7           0        5.545186    2.197703    0.496906
     11          6           0        4.571830    1.275189    0.354788
     12          7           0        3.311786    1.523744   -0.001789
     13          7           0        4.960649   -0.010734    0.613638
     14          6           0        4.245095   -1.216917    0.494836
     15          6           0        4.969018   -2.426500    0.479654
     16          6           0        4.248554   -3.609409    0.338141
     17          6           0        2.862804   -3.650813    0.195278
     18          6           0        2.171381   -2.443348    0.217232
     19          6           0        2.859545   -1.243343    0.394018
     20          7           0        0.784848   -2.305486    0.039408
     21          6           0       -0.155143   -3.232734   -0.330927
     22          6           0       -1.474611   -2.601293   -0.675216
     23          6           0       -1.549708   -1.358393   -1.310884
     24          6           0       -2.782020   -0.779022   -1.574532
     25          6           0       -3.965406   -1.410092   -1.191278
     26          6           0       -3.883750   -2.677502   -0.607654
     27          6           0       -2.653658   -3.274511   -0.357523
     28          6           0       -5.302408   -0.704261   -1.348330
     29          7           0       -5.692404    0.226105   -0.299717
     30          6           0       -5.025215    1.522674   -0.247735
     31          6           0       -3.815335    1.577515    0.702846
     32          7           0       -4.112861    1.068854    2.038937
     33          6           0       -4.901545    1.978180    2.851150
     34          6           0       -4.679243   -0.274456    1.940056
     35          6           0       -5.914302   -0.339952    1.026251
     36          8           0        0.036891   -4.436575   -0.364586
     37          6           0        6.471802   -2.442104    0.599306
     38          1           0       -1.033469    5.191493   -0.619470
     39          1           0        1.375519    5.045504    0.013115
     40          1           0        1.324957    0.980824   -1.366343
     41          1           0       -2.152142    3.176537   -1.565411
     42          1           0        3.660812    4.851122   -0.380756
     43          1           0        5.967277    4.197187    0.338211
     44          1           0        5.941893   -0.076726    0.839505
     45          1           0        4.796890   -4.548027    0.324788
     46          1           0        2.333967   -4.584922    0.064361
     47          1           0        2.314376   -0.312042    0.419625
     48          1           0        0.446208   -1.359094    0.130810
     49          1           0       -0.653248   -0.833476   -1.627862
     50          1           0       -2.809892    0.190348   -2.065610
     51          1           0       -4.798487   -3.197249   -0.331143
     52          1           0       -2.589992   -4.257014    0.099521
     53          1           0       -5.308144   -0.149136   -2.294184
     54          1           0       -6.094796   -1.460055   -1.422638
     55          1           0       -4.723346    1.803881   -1.263784
     56          1           0       -5.766446    2.268008    0.078102
     57          1           0       -3.457814    2.611343    0.792322
     58          1           0       -2.990597    0.982076    0.295775
     59          1           0       -5.911573    2.205892    2.467082
     60          1           0       -4.363686    2.927484    2.951222
     61          1           0       -5.017326    1.551392    3.853400
     62          1           0       -4.937884   -0.622893    2.947359
     63          1           0       -3.897485   -0.938118    1.552631
     64          1           0       -6.742927    0.208736    1.498197
     65          1           0       -6.248309   -1.377681    0.915409
     66          1           0        6.817217   -2.030823    1.557706
     67          1           0        6.951994   -1.865313   -0.201844
     68          1           0        6.852232   -3.464646    0.535185
 ---------------------------------------------------------------------

 The electronic state is 1-A.
 Alpha  occ. eigenvalues --  -19.23412 -14.49282 -14.48321 -14.46751 -14.46096
 Alpha  occ. eigenvalues --  -14.45764 -14.43617 -14.43135 -10.41778 -10.40081
 Alpha  occ. eigenvalues --  -10.37614 -10.36338 -10.35324 -10.35084 -10.34623
 Alpha  occ. eigenvalues --  -10.34135 -10.34016 -10.33622 -10.32863 -10.32367
 Alpha  occ. eigenvalues --  -10.31860 -10.31492 -10.31179 -10.30936 -10.30708
 Alpha  occ. eigenvalues --  -10.30688 -10.30677 -10.30585 -10.30534 -10.30403
 Alpha  occ. eigenvalues --  -10.30377 -10.30220 -10.30020 -10.29974 -10.29575
 Alpha  occ. eigenvalues --  -10.28740 -10.28405  -1.13444  -1.12295  -1.06321
 Alpha  occ. eigenvalues --   -1.04565  -1.03829  -1.03634  -1.00715  -0.99558
 Alpha  occ. eigenvalues --   -0.96086  -0.94671  -0.93098  -0.89777  -0.88124
 Alpha  occ. eigenvalues --   -0.87388  -0.86228  -0.85399  -0.84542  -0.83783
 Alpha  occ. eigenvalues --   -0.81888  -0.79581  -0.78270  -0.77798  -0.76320
 Alpha  occ. eigenvalues --   -0.73881  -0.73301  -0.73025  -0.72621  -0.70870
 Alpha  occ. eigenvalues --   -0.70314  -0.69615  -0.68039  -0.66413  -0.65150
 Alpha  occ. eigenvalues --   -0.63656  -0.63408  -0.62228  -0.61762  -0.60211
 Alpha  occ. eigenvalues --   -0.58848  -0.58045  -0.57570  -0.56611  -0.56100
 Alpha  occ. eigenvalues --   -0.55817  -0.55236  -0.55134  -0.54965  -0.54255
 Alpha  occ. eigenvalues --   -0.53867  -0.53239  -0.53154  -0.52612  -0.52174
 Alpha  occ. eigenvalues --   -0.51912  -0.51510  -0.51370  -0.50999  -0.50575
 Alpha  occ. eigenvalues --   -0.50365  -0.50116  -0.49974  -0.49497  -0.48335
 Alpha  occ. eigenvalues --   -0.47217  -0.46906  -0.46619  -0.46319  -0.46211
 Alpha  occ. eigenvalues --   -0.45762  -0.45236  -0.44798  -0.44045  -0.43932
 Alpha  occ. eigenvalues --   -0.43328  -0.43016  -0.42142  -0.41766  -0.41439
 Alpha  occ. eigenvalues --   -0.40964  -0.40777  -0.39912  -0.38187  -0.37592
 Alpha  occ. eigenvalues --   -0.35821  -0.35293  -0.34001  -0.33447  -0.33373
 Alpha  occ. eigenvalues --   -0.32818  -0.31904  -0.30772  -0.29115  -0.27080
 Alpha  occ. eigenvalues --   -0.24996
 Alpha virt. eigenvalues --   -0.00291   0.02872   0.03586   0.04480   0.06433
 Alpha virt. eigenvalues --    0.07258   0.08204   0.10370   0.13887   0.14814
 Alpha virt. eigenvalues --    0.15729   0.16386   0.17252   0.17441   0.18251

 Mulliken atomic charges:
              1
     1  C   -0.197840
     2  C   -0.154402
     3  C    0.035508
     4  C    0.009588
     5  N   -0.437521
     6  C    0.035725
     7  C    0.295138
     8  C   -0.254763
     9  C    0.049019
    10  N   -0.493035
    11  C    0.714325
    12  N   -0.568378
    13  N   -0.802008
    14  C    0.291448
    15  C    0.119867
    16  C   -0.240380
    17  C   -0.191301
    18  C    0.358149
    19  C   -0.269686
    20  N   -0.757963
    21  C    0.585720
    22  C    0.015187
    23  C   -0.205356
    24  C   -0.217894
    25  C    0.155969
    26  C   -0.223074
    27  C   -0.178383
    28  C   -0.263562
    29  N   -0.382221
    30  C   -0.183898
    31  C   -0.181771
    32  N   -0.385718
    33  C   -0.349274
    34  C   -0.182631
    35  C   -0.186518
    36  O   -0.513273
    37  C   -0.607371
    38  H    0.186139
    39  H    0.186726
    40  H    0.198119
    41  H    0.179045
    42  H    0.180745
    43  H    0.189490
    44  H    0.369210
    45  H    0.160820
    46  H    0.213083
    47  H    0.199360
    48  H    0.361560
    49  H    0.185469
    50  H    0.172060
    51  H    0.163617
    52  H    0.195607
    53  H    0.170281
    54  H    0.168920
    55  H    0.148152
    56  H    0.158354
    57  H    0.141660
    58  H    0.174888
    59  H    0.135269
    60  H    0.164119
    61  H    0.167874
    62  H    0.153489
    63  H    0.172919
    64  H    0.159409
    65  H    0.154991
    66  H    0.178043
    67  H    0.182743
    68  H    0.190420
 Sum of Mulliken atomic charges =   0.00000

 Dipole moment (field-independent basis, Debye):
    X=              0.5799    Y=              6.5718    Z=              0.4329  Tot=              6.6115
 Quadrupole moment (field-independent basis, Debye-Ang):
   XX=           -193.2967   YY=           -202.5091   ZZ=           -220.4850
   XY=              3.1062   XZ=             -1.2852   YZ=             -5.2227

 Normal termination of Gaussian 09 at Thu Apr  9 00:31:31 2020.
