 Gaussian 09, Revision A.02,
 Gaussian 09:  EM64L-G09RevA.02 11-Jun-2009

 --------------------------------------------------
 #P opt=(,maxcycle=400) wB97XD/6-31G* MaxDisk=100GB
 --------------------------------------------------

 --------------------------------------------------------------
 MOLECULE0 Rotatable Bond Optimization on node37.bme.utexas.edu
 --------------------------------------------------------------
 Symbolic Z-matrix:
 Charge =  0 Multiplicity = 1

 SCF Done:  E(RwB97XD) =  -1581.52339040     A.U. after   16 cycles
 SCF Done:  E(RwB97XD) =  -1581.58227456     A.U. after   13 cycles
 SCF Done:  E(RwB97XD) =  -1581.67855506     A.U. after   14 cycles
 SCF Done:  E(RwB97XD) =  -1581.72281194     A.U. after   14 cycles
 SCF Done:  E(RwB97XD) =  -1581.73185111     A.U. after   17 cycles
 SCF Done:  E(RwB97XD) =  -1581.74023114     A.U. after   17 cycles
 SCF Done:  E(RwB97XD) =  -1581.75518821     A.U. after   13 cycles
 SCF Done:  E(RwB97XD) =  -1581.75866807     A.U. after   14 cycles
 SCF Done:  E(RwB97XD) =  -1581.76009832     A.U. after   16 cycles
 SCF Done:  E(RwB97XD) =  -1581.75998150     A.U. after   16 cycles
 SCF Done:  E(RwB97XD) =  -1581.76736611     A.U. after   10 cycles
 SCF Done:  E(RwB97XD) =  -1581.76736834     A.U. after   11 cycles
 SCF Done:  E(RwB97XD) =  -1581.76737041     A.U. after   10 cycles
 SCF Done:  E(RwB97XD) =  -1581.76737330     A.U. after   11 cycles
 SCF Done:  E(RwB97XD) =  -1581.76737678     A.U. after   12 cycles
 SCF Done:  E(RwB97XD) =  -1581.76737956     A.U. after    9 cycles
 SCF Done:  E(RwB97XD) =  -1581.76738020     A.U. after    8 cycles
 SCF Done:  E(RwB97XD) =  -1581.76738035     A.U. after    7 cycles
 SCF Done:  E(RwB97XD) =  -1581.76738047     A.U. after    7 cycles
 SCF Done:  E(RwB97XD) =  -1581.76738052     A.U. after    6 cycles
 Optimization completed.
    -- Stationary point found.

                         Standard orientation:
 ---------------------------------------------------------------------
 Center     Atomic      Atomic             Coordinates (Angstroms)
 Number     Number       Type             X           Y           Z
 ---------------------------------------------------------------------
      1          6           0       -0.645815    2.623199    0.533667
      2          6           0        0.695095    2.267120    0.510023
      3          6           0        1.619865    3.139095   -0.072294
      4          6           0        1.131584    4.326187   -0.624653
      5          7           0       -0.151994    4.683301   -0.612972
      6          6           0       -1.010719    3.841663   -0.034752
      7          6           0        3.062075    2.798820   -0.112653
      8          6           0        4.063623    3.765558   -0.168072
      9          6           0        5.373258    3.295215   -0.204912
     10          7           0        5.690221    2.008339   -0.179985
     11          6           0        4.647508    1.156514   -0.110458
     12          7           0        3.357523    1.493735   -0.080970
     13          7           0        5.014302   -0.161594   -0.066206
     14          6           0        4.250623   -1.335593    0.026179
     15          6           0        4.928418   -2.530052    0.346711
     16          6           0        4.178102   -3.697388    0.434865
     17          6           0        2.802354   -3.735129    0.227936
     18          6           0        2.154667   -2.544833   -0.092050
     19          6           0        2.877462   -1.355597   -0.201641
     20          7           0        0.770514   -2.446594   -0.336027
     21          6           0       -0.214497   -3.356360   -0.048235
     22          6           0       -1.598752   -2.862098   -0.360551
     23          6           0       -1.879772   -2.014365   -1.435370
     24          6           0       -3.176286   -1.563069   -1.648631
     25          6           0       -4.212823   -1.923553   -0.786025
     26          6           0       -3.931088   -2.812750    0.253577
     27          6           0       -2.641815   -3.284973    0.462817
     28          6           0       -5.602769   -1.326306   -0.939612
     29          7           0       -5.847114   -0.035280   -0.316492
     30          6           0       -5.334538    1.157194   -0.979327
     31          6           0       -3.956211    1.616666   -0.476879
     32          7           0       -3.884705    1.741253    0.978969
     33          6           0       -4.567903    2.914707    1.500647
     34          6           0       -4.317867    0.488436    1.600937
     35          6           0       -5.711511    0.035026    1.133040
     36          8           0       -0.017831   -4.453904    0.445708
     37          6           0        6.415595   -2.546139    0.593634
     38          1           0       -1.414825    1.997218    0.979475
     39          1           0        1.044001    1.335558    0.945453
     40          1           0        1.807658    5.016853   -1.125187
     41          1           0       -2.051686    4.157264   -0.023295
     42          1           0        3.849340    4.826642   -0.157215
     43          1           0        6.208606    3.991157   -0.249768
     44          1           0        6.017435   -0.269682   -0.059322
     45          1           0        4.689271   -4.623760    0.684149
     46          1           0        2.245133   -4.655692    0.324981
     47          1           0        2.374359   -0.429900   -0.446321
     48          1           0        0.454761   -1.523068   -0.593696
     49          1           0       -1.095393   -1.729463   -2.132021
     50          1           0       -3.385258   -0.912889   -2.495191
     51          1           0       -4.732750   -3.132725    0.915312
     52          1           0       -2.422099   -3.979822    1.266913
     53          1           0       -5.836449   -1.220458   -2.005504
     54          1           0       -6.333905   -2.033015   -0.526049
     55          1           0       -5.299164    0.976842   -2.059513
     56          1           0       -6.060067    1.968941   -0.820105
     57          1           0       -3.697791    2.581395   -0.929264
     58          1           0       -3.187780    0.897057   -0.780816
     59          1           0       -5.657625    2.938818    1.333003
     60          1           0       -4.143432    3.812852    1.039715
     61          1           0       -4.393800    2.979181    2.579754
     62          1           0       -4.308556    0.616224    2.689824
     63          1           0       -3.576692   -0.279606    1.351246
     64          1           0       -6.466742    0.738773    1.512934
     65          1           0       -5.950977   -0.943964    1.562347
     66          1           0        6.704278   -1.866503    1.405553
     67          1           0        6.987703   -2.259252   -0.299559
     68          1           0        6.746687   -3.549034    0.874761
 ---------------------------------------------------------------------

 The electronic state is 1-A.
 Alpha  occ. eigenvalues --  -19.24089 -14.49150 -14.49017 -14.45638 -14.45495
 Alpha  occ. eigenvalues --  -14.45254 -14.44752 -14.44486 -10.41410 -10.40878
 Alpha  occ. eigenvalues --  -10.36990 -10.35812 -10.34772 -10.34358 -10.34178
 Alpha  occ. eigenvalues --  -10.33795 -10.33270 -10.32415 -10.32329 -10.32275
 Alpha  occ. eigenvalues --  -10.32159 -10.32061 -10.32003 -10.31811 -10.31773
 Alpha  occ. eigenvalues --  -10.31762 -10.31723 -10.31419 -10.31321 -10.31205
 Alpha  occ. eigenvalues --  -10.31200 -10.30807 -10.30492 -10.30094 -10.29696
 Alpha  occ. eigenvalues --  -10.29148 -10.28553  -1.14248  -1.11908  -1.05088
 Alpha  occ. eigenvalues --   -1.04927  -1.04514  -1.03924  -1.00692  -1.00240
 Alpha  occ. eigenvalues --   -0.97149  -0.94799  -0.91759  -0.89379  -0.88646
 Alpha  occ. eigenvalues --   -0.86819  -0.86443  -0.86243  -0.85685  -0.83680
 Alpha  occ. eigenvalues --   -0.82873  -0.80131  -0.78570  -0.77406  -0.76021
 Alpha  occ. eigenvalues --   -0.74343  -0.73636  -0.72815  -0.71793  -0.71617
 Alpha  occ. eigenvalues --   -0.71220  -0.69819  -0.68525  -0.66744  -0.64958
 Alpha  occ. eigenvalues --   -0.64627  -0.63170  -0.62535  -0.61081  -0.60116
 Alpha  occ. eigenvalues --   -0.58973  -0.58182  -0.57565  -0.56650  -0.56349
 Alpha  occ. eigenvalues --   -0.55926  -0.55793  -0.55164  -0.54887  -0.54641
 Alpha  occ. eigenvalues --   -0.54423  -0.54138  -0.53873  -0.53287  -0.52595
 Alpha  occ. eigenvalues --   -0.51884  -0.51660  -0.51425  -0.50999  -0.50800
 Alpha  occ. eigenvalues --   -0.50409  -0.50019  -0.49366  -0.49204  -0.48843
 Alpha  occ. eigenvalues --   -0.47703  -0.47540  -0.47286  -0.47125  -0.46416
 Alpha  occ. eigenvalues --   -0.46063  -0.45850  -0.45151  -0.44692  -0.44090
 Alpha  occ. eigenvalues --   -0.43558  -0.43276  -0.42949  -0.42536  -0.41957
 Alpha  occ. eigenvalues --   -0.41847  -0.41095  -0.39715  -0.38105  -0.36396
 Alpha  occ. eigenvalues --   -0.35067  -0.34335  -0.34262  -0.34043  -0.33635
 Alpha  occ. eigenvalues --   -0.32954  -0.32672  -0.31975  -0.29393  -0.27113
 Alpha  occ. eigenvalues --   -0.26187
 Alpha virt. eigenvalues --    0.00536   0.02564   0.04139   0.04952   0.05308
 Alpha virt. eigenvalues --    0.07730   0.08197   0.10644   0.13795   0.14270
 Alpha virt. eigenvalues --    0.15592   0.15749   0.16868   0.17975   0.18382

 Mulliken atomic charges:
              1
     1  C   -0.194952
     2  C   -0.155717
     3  C    0.040375
     4  C   -0.013274
     5  N   -0.423391
     6  C    0.014927
     7  C    0.286076
     8  C   -0.251843
     9  C    0.048515
    10  N   -0.497096
    11  C    0.713254
    12  N   -0.566529
    13  N   -0.806675
    14  C    0.298512
    15  C    0.117524
    16  C   -0.239665
    17  C   -0.190041
    18  C    0.353521
    19  C   -0.272317
    20  N   -0.760392
    21  C    0.589942
    22  C    0.015719
    23  C   -0.211588
    24  C   -0.218112
    25  C    0.154725
    26  C   -0.222990
    27  C   -0.177682
    28  C   -0.264403
    29  N   -0.380973
    30  C   -0.184921
    31  C   -0.181226
    32  N   -0.395907
    33  C   -0.355906
    34  C   -0.183101
    35  C   -0.188877
    36  O   -0.510954
    37  C   -0.608922
    38  H    0.212570
    39  H    0.199651
    40  H    0.174220
    41  H    0.169149
    42  H    0.186397
    43  H    0.188603
    44  H    0.369497
    45  H    0.161348
    46  H    0.213298
    47  H    0.199503
    48  H    0.357516
    49  H    0.179595
    50  H    0.167824
    51  H    0.167897
    52  H    0.201579
    53  H    0.172886
    54  H    0.172662
    55  H    0.156834
    56  H    0.163382
    57  H    0.155226
    58  H    0.161746
    59  H    0.144100
    60  H    0.168513
    61  H    0.173497
    62  H    0.158529
    63  H    0.171174
    64  H    0.163475
    65  H    0.159041
    66  H    0.184940
    67  H    0.179356
    68  H    0.190359
 Sum of Mulliken atomic charges =   0.00000

 Dipole moment (field-independent basis, Debye):
    X=             -0.9187    Y=              2.1809    Z=              0.0459  Tot=              2.3670
 Quadrupole moment (field-independent basis, Debye-Ang):
   XX=           -188.5003   YY=           -231.2277   ZZ=           -212.7071
   XY=              2.9889   XZ=             -1.9337   YZ=              1.0326

 Normal termination of Gaussian 09 at Wed Mar 25 16:20:18 2020.
