                               Psi4 1.3.2 release

  ==> Input File <==

--------------------------------------------------------------------------
molecule {
0 1
 C   -6.833346   -3.715613   -1.912760
 C   -6.024516   -3.303369   -0.846135
 C   -5.752727   -1.933746   -0.655511
 C   -6.340471   -1.049701   -1.593750
 N   -7.115932   -1.427302   -2.619197
 C   -7.352705   -2.738892   -2.768712
 C   -4.892722   -1.399912    0.462155
 C   -4.256095   -2.193308    1.434589
 C   -3.492590   -1.508700    2.387963
 N   -3.345514   -0.187092    2.415798
 C   -4.000143    0.485766    1.451767
 N   -4.748388   -0.060795    0.496195
 N   -3.855022    1.841143    1.494076
 C   -2.752971    2.687015    1.148732
 C   -2.899890    4.103388    1.249711
 C   -1.794464    4.890702    0.892641
 C   -0.575277    4.365606    0.452239
 C   -0.437299    2.974947    0.368021
 C   -1.528879    2.158347    0.714174
 N    0.748424    2.294740   -0.068692
 C    2.012310    2.766429   -0.347886
 C    3.051348    1.767064   -0.819999
 C    2.748366    0.629225   -1.586026
 C    3.759891   -0.254907   -1.969924
 C    5.107244   -0.025576   -1.631695
 C    5.399787    1.135088   -0.889921
 C    4.395473    2.025117   -0.502489
 C    6.207409   -1.012445   -2.028582
 N    6.520012   -2.149900   -1.147241
 C    5.560795   -3.274044   -1.054829
 C    4.546218   -3.158164    0.112212
 N    5.174141   -2.938679    1.437486
 C    5.687264   -4.128299    2.127275
 C    6.096300   -1.780528    1.342142
 C    7.118838   -1.880789    0.180337
 O    2.321184    3.940040   -0.214182
 C   -4.179144    4.779599    1.713784
 H   -7.056523   -4.765639   -2.077367
 H   -5.621433   -4.063088   -0.180993
 H   -6.172278    0.020497   -1.510635
 H   -7.986016   -3.006336   -3.613151
 H   -4.321941   -3.273080    1.484631
 H   -2.957229   -2.031254    3.180117
 H   -4.714254    2.272492    1.799810
 H   -1.873433    5.975604    0.950961
 H    0.253048    5.012618    0.192050
 H   -1.437877    1.082224    0.656231
 H    0.666541    1.287882   -0.068298
 H    1.719346    0.444223   -1.884167
 H    3.489503   -1.141346   -2.543522
 H    6.428408    1.346771   -0.599772
 H    4.638266    2.923122    0.060290
 H    5.953213   -1.433483   -3.011746
 H    7.142520   -0.448665   -2.156500
 H    5.003154   -3.428737   -2.090119
 H    6.356209   -4.499002   -0.828723
 H    3.792896   -4.276600    0.169320
 H    3.742869   -2.167372   -0.098200
 H    6.524873   -4.570822    1.576258
 H    4.894442   -4.878368    2.227888
 H    6.027978   -3.864176    3.135078
 H    6.704151   -1.640447    2.452741
 H    5.296908   -0.637165    1.159700
 H    8.021482   -3.009971    0.482354
 H    7.804087   -0.909432    0.135689
 H   -4.491899    4.455225    2.716652
 H   -5.005988    4.564979    1.030925
 H   -4.087031    5.867856    1.760039
}
memory 20GB
set_num_threads(6)
psi4_io.set_default_path("/scratch/bdw2292")
set freeze_core True
E, wfn = energy('mp2/6-311++G**',return_wfn=True)
oeprop(wfn,"WIBERG_LOWDIN_INDICES")
clean()
--------------------------------------------------------------------------

    Molecular point group: c1

    Geometry (in Angstrom), charge = 0, multiplicity = 1:

       Center              X                  Y                   Z               Mass
    ------------   -----------------  -----------------  -----------------  -----------------
         C           -6.765162778420    -3.764689044894    -1.909506921569    12.000000000000
         C           -5.956332778420    -3.352445044894    -0.842881921569    12.000000000000
         C           -5.684543778420    -1.982822044894    -0.652257921569    12.000000000000
         C           -6.272287778420    -1.098777044894    -1.590496921569    12.000000000000
         N           -7.047748778420    -1.476378044894    -2.615943921569    14.003074004430
         C           -7.284521778420    -2.787968044894    -2.765458921569    12.000000000000
         C           -4.824538778420    -1.448988044894     0.465408078431    12.000000000000
         C           -4.187911778420    -2.242384044894     1.437842078431    12.000000000000
         C           -3.424406778420    -1.557776044894     2.391216078431    12.000000000000
         N           -3.277330778420    -0.236168044894     2.419051078431    14.003074004430
         C           -3.931959778420     0.436689955106     1.455020078431    12.000000000000
         N           -4.680204778420    -0.109871044894     0.499448078431    14.003074004430
         N           -3.786838778420     1.792066955106     1.497329078431    14.003074004430
         C           -2.684787778420     2.637938955106     1.151985078431    12.000000000000
         C           -2.831706778420     4.054311955106     1.252964078431    12.000000000000
         C           -1.726280778420     4.841625955106     0.895894078431    12.000000000000
         C           -0.507093778420     4.316529955106     0.455492078431    12.000000000000
         C           -0.369115778420     2.925870955106     0.371274078431    12.000000000000
         C           -1.460695778420     2.109270955106     0.717427078431    12.000000000000
         N            0.816607221580     2.245663955106    -0.065438921569    14.003074004430
         C            2.080493221580     2.717352955106    -0.344632921569    12.000000000000
         C            3.119531221580     1.717987955106    -0.816745921569    12.000000000000
         C            2.816549221580     0.580148955106    -1.582772921569    12.000000000000
         C            3.828074221580    -0.303983044894    -1.966670921569    12.000000000000
         C            5.175427221580    -0.074652044894    -1.628441921569    12.000000000000
         C            5.467970221580     1.086011955106    -0.886667921569    12.000000000000
         C            4.463656221580     1.976040955106    -0.499235921569    12.000000000000
         C            6.275592221580    -1.061521044894    -2.025328921569    12.000000000000
         N            6.588195221580    -2.198976044894    -1.143987921569    14.003074004430
         C            5.628978221580    -3.323120044894    -1.051575921569    12.000000000000
         C            4.614401221580    -3.207240044894     0.115465078431    12.000000000000
         N            5.242324221580    -2.987755044894     1.440739078431    14.003074004430
         C            5.755447221580    -4.177375044894     2.130528078431    12.000000000000
         C            6.164483221580    -1.829604044894     1.345395078431    12.000000000000
         C            7.187021221580    -1.929865044894     0.183590078431    12.000000000000
         O            2.389367221580     3.890963955106    -0.210928921569    15.994914619570
         C           -4.110960778420     4.730522955106     1.717037078431    12.000000000000
         H           -6.988339778420    -4.814715044894    -2.074113921569     1.007825032230
         H           -5.553249778420    -4.112164044894    -0.177739921569     1.007825032230
         H           -6.104094778420    -0.028579044894    -1.507381921569     1.007825032230
         H           -7.917832778420    -3.055412044894    -3.609897921569     1.007825032230
         H           -4.253757778420    -3.322156044894     1.487884078431     1.007825032230
         H           -2.889045778420    -2.080330044894     3.183370078431     1.007825032230
         H           -4.646070778420     2.223415955106     1.803063078431     1.007825032230
         H           -1.805249778420     5.926527955106     0.954214078431     1.007825032230
         H            0.321231221580     4.963541955106     0.195303078431     1.007825032230
         H           -1.369693778420     1.033147955106     0.659484078431     1.007825032230
         H            0.734724221580     1.238805955106    -0.065044921569     1.007825032230
         H            1.787529221580     0.395146955106    -1.880913921569     1.007825032230
         H            3.557686221580    -1.190422044894    -2.540268921569     1.007825032230
         H            6.496591221580     1.297694955106    -0.596518921569     1.007825032230
         H            4.706449221580     2.874045955106     0.063543078431     1.007825032230
         H            6.021396221580    -1.482559044894    -3.008492921569     1.007825032230
         H            7.210703221580    -0.497741044894    -2.153246921569     1.007825032230
         H            5.071337221580    -3.477813044894    -2.086865921569     1.007825032230
         H            6.424392221580    -4.548078044894    -0.825469921569     1.007825032230
         H            3.861079221580    -4.325676044894     0.172573078431     1.007825032230
         H            3.811052221580    -2.216448044894    -0.094946921569     1.007825032230
         H            6.593056221580    -4.619898044894     1.579511078431     1.007825032230
         H            4.962625221580    -4.927444044894     2.231141078431     1.007825032230
         H            6.096161221580    -3.913252044894     3.138331078431     1.007825032230
         H            6.772334221580    -1.689523044894     2.455994078431     1.007825032230
         H            5.365091221580    -0.686241044894     1.162953078431     1.007825032230
         H            8.089665221580    -3.059047044894     0.485607078431     1.007825032230
         H            7.872270221580    -0.958508044894     0.138942078431     1.007825032230
         H           -4.423715778420     4.406148955106     2.719905078431     1.007825032230
         H           -4.937804778420     4.515902955106     1.034178078431     1.007825032230
         H           -4.018847778420     5.818779955106     1.763292078431     1.007825032230

  Charge       = 0
  Multiplicity = 1
  Basis Set: 6-311++G**
    Blend: 6-311++G**
  Basis Set: (6-311++G** AUX)
    Blend: AUG-CC-PVTZ-JKFIT

    Orbital Energies [Eh]
    ---------------------

    Doubly Occupied:

       1A    -20.523936     2A    -15.604785     3A    -15.580718
       4A    -15.578258     5A    -15.577231     6A    -15.575542
       7A    -15.572306     8A    -15.557939     9A    -11.367923
      10A    -11.363619    11A    -11.333618    12A    -11.313842
      13A    -11.313771    14A    -11.311015    15A    -11.309211
      16A    -11.307631    17A    -11.300866    18A    -11.294659
      19A    -11.293838    20A    -11.292417    21A    -11.285077
      22A    -11.281662    23A    -11.275373    24A    -11.263891
      25A    -11.263859    26A    -11.262713    27A    -11.262529
      28A    -11.260271    29A    -11.254778    30A    -11.253910
      31A    -11.250939    32A    -11.248991    33A    -11.239114
      34A    -11.236445    35A    -11.231544    36A    -11.229690
      37A    -11.217614    38A     -1.389588    39A     -1.347385
      40A     -1.270772    41A     -1.250738    42A     -1.248270
      43A     -1.239459    44A     -1.212515    45A     -1.202528
      46A     -1.167631    47A     -1.137736    48A     -1.111570
      49A     -1.073711    50A     -1.062800    51A     -1.044688
      52A     -1.036281    53A     -1.030203    54A     -1.004068
      55A     -0.994738    56A     -0.980054    57A     -0.945481
      58A     -0.929924    59A     -0.923229    60A     -0.901863
      61A     -0.868353    62A     -0.866671    63A     -0.854563
      64A     -0.847721    65A     -0.835096    66A     -0.828900
      67A     -0.822763    68A     -0.808154    69A     -0.778105
      70A     -0.752156    71A     -0.739074    72A     -0.732493
      73A     -0.717912    74A     -0.714698    75A     -0.702426
      76A     -0.681294    77A     -0.675980    78A     -0.667402
      79A     -0.662443    80A     -0.656032    81A     -0.650470
      82A     -0.644911    83A     -0.637326    84A     -0.636063
      85A     -0.623250    86A     -0.617428    87A     -0.609357
      88A     -0.607935    89A     -0.606899    90A     -0.601385
      91A     -0.598078    92A     -0.592493    93A     -0.587945
      94A     -0.586642    95A     -0.583925    96A     -0.580893
      97A     -0.578592    98A     -0.576952    99A     -0.567456
     100A     -0.549132   101A     -0.544385   102A     -0.540382
     103A     -0.533354   104A     -0.529532   105A     -0.527825
     106A     -0.521584   107A     -0.512335   108A     -0.508015
     109A     -0.507657   110A     -0.506058   111A     -0.503833
     112A     -0.499958   113A     -0.489080   114A     -0.467567
     115A     -0.457595   116A     -0.449706   117A     -0.439174
     118A     -0.436382   119A     -0.430191   120A     -0.416496
     121A     -0.415580   122A     -0.414722   123A     -0.400958
     124A     -0.385794   125A     -0.380895   126A     -0.351945
     127A     -0.347708   128A     -0.341368   129A     -0.317818
     130A     -0.314849   131A     -0.286161

  @DF-RHF Final Energy: -1572.34670074882024

   => Energetics <=

    Nuclear Repulsion Energy =           3564.4757719138619905
    One-Electron Energy =               -9227.1948945881049440
    Two-Electron Energy =                4090.3724219254231684
    Total Energy =                      -1572.3467007488202398

  Dipole Moment: [D]
     X:    -1.5257      Y:    -6.7012      Z:     0.6454     Total:     6.9029

  Basis Set: (6-311++G** AUX)
    Blend: AUG-CC-PVTZ-RI
	 Reference Energy          =   -1572.3467007488202398 [Eh]
	 Singles Energy            =      -0.0000000000000000 [Eh]
	 Same-Spin Energy          =      -1.4687419202661567 [Eh]
	 Opposite-Spin Energy      =      -4.0443164722113609 [Eh]
	 Correlation Energy        =      -5.5130583924775181 [Eh]
	 Total Energy              =   -1577.8597591412976726 [Eh]

	 ================> DF-SCS-MP2 Energies <==================
	-----------------------------------------------------------
	 SCS Same-Spin Scale       =       0.3333333333333333 [-]
	 SCS Opposite-Spin Scale   =       1.2000000000000000 [-]
	 SCS Same-Spin Energy      =      -0.4895806400887189 [Eh]
	 SCS Opposite-Spin Energy  =      -4.8531797666536329 [Eh]
	 SCS Correlation Energy    =      -5.3427604067423520 [Eh]
	 SCS Total Energy          =   -1577.6894611555626398 [Eh]
	-----------------------------------------------------------

*** Psi4 exiting successfully. Buy a developer a beer!
