                               Psi4 1.3.2 release

  ==> Input File <==

--------------------------------------------------------------------------
molecule {
0 1
 C   -1.613755    4.952846    0.473581
 C   -2.856881    4.307994    0.496876
 C   -2.927858    2.908085    0.352235
 C   -1.688642    2.240832    0.185602
 N   -0.489712    2.841842    0.150415
 C   -0.464936    4.175074    0.296476
 C   -4.223835    2.134978    0.334008
 C   -5.503950    2.716232    0.351321
 C   -6.581951    1.827696    0.269639
 N   -6.459275    0.505203    0.186989
 C   -5.195686    0.033664    0.188743
 N   -4.104453    0.795706    0.268621
 N   -5.086705   -1.342153    0.120550
 C   -3.963050   -2.235300    0.147048
 C   -4.133289   -3.559695    0.651810
 C   -3.010652   -4.402262    0.635049
 C   -1.743984   -4.009948    0.186330
 C   -1.582920   -2.702683   -0.290070
 C   -2.701916   -1.855671   -0.326861
 N   -0.328736   -2.153843   -0.720308
 C    0.009027   -1.037933   -1.457353
 C    1.486421   -0.730502   -1.596152
 C    2.477336   -1.713774   -1.749936
 C    3.824594   -1.352448   -1.824567
 C    4.229422   -0.005639   -1.762067
 C    3.220379    0.971722   -1.661706
 C    1.870456    0.620924   -1.591093
 C    5.709325    0.381708   -1.772365
 N    6.445182    0.451801   -0.498131
 C    6.795830   -0.807865    0.197464
 C    5.771927   -1.258018    1.271754
 N    5.455279   -0.214898    2.276623
 C    6.404131   -0.058924    3.385052
 C    5.057340    1.025602    1.567141
 C    6.070195    1.491319    0.488306
 O   -0.819294   -0.293313   -1.956876
 C   -5.457013   -4.081755    1.184715
 H   -1.536468    6.030009    0.587489
 H   -3.750400    4.912276    0.633584
 H   -1.667910    1.164888    0.051327
 H    0.525815    4.626494    0.266128
 H   -5.693456    3.781479    0.396930
 H   -7.614782    2.174877    0.263479
 H   -6.004680   -1.759607    0.152181
 H   -3.108120   -5.422590    1.004335
 H   -0.903462   -4.692485    0.225500
 H   -2.601999   -0.861511   -0.732788
 H    0.436538   -2.697346   -0.347072
 H    2.186471   -2.759652   -1.808631
 H    4.573700   -2.139051   -1.913381
 H    3.489916    2.025841   -1.608318
 H    1.105620    1.386443   -1.479738
 H    6.250592   -0.328400   -2.413647
 H    5.802484    1.368937   -2.246482
 H    6.992714   -1.661268   -0.577983
 H    8.079541   -0.574128    0.884862
 H    6.226411   -2.333472    1.901852
 H    4.643773   -1.595086    0.698537
 H    7.376298    0.293012    3.022059
 H    6.544335   -1.016186    3.900380
 H    6.017404    0.661283    4.115235
 H    4.866746    1.952365    2.424219
 H    3.816003    0.765489    0.959435
 H    7.315268    1.885278    1.192829
 H    5.685974    2.446590   -0.055102
 H   -6.229445   -4.148736    0.405162
 H   -5.849466   -3.431411    1.971375
 H   -5.371832   -5.080191    1.621459
}
memory 20GB
set_num_threads(6)
psi4_io.set_default_path("/scratch/bdw2292")
set freeze_core True
E, wfn = energy('mp2/6-311++G**',return_wfn=True)
oeprop(wfn,"WIBERG_LOWDIN_INDICES")
clean()
--------------------------------------------------------------------------

    Molecular point group: c1

    Geometry (in Angstrom), charge = 0, multiplicity = 1:

       Center              X                  Y                   Z               Mass
    ------------   -----------------  -----------------  -----------------  -----------------
         C           -1.524887796816     4.948117584650     0.492101445712    12.000000000000
         C           -2.768013796816     4.303265584650     0.515396445712    12.000000000000
         C           -2.838990796816     2.903356584650     0.370755445712    12.000000000000
         C           -1.599774796816     2.236103584650     0.204122445712    12.000000000000
         N           -0.400844796816     2.837113584650     0.168935445712    14.003074004430
         C           -0.376068796816     4.170345584650     0.314996445712    12.000000000000
         C           -4.134967796816     2.130249584650     0.352528445712    12.000000000000
         C           -5.415082796816     2.711503584650     0.369841445712    12.000000000000
         C           -6.493083796816     1.822967584650     0.288159445712    12.000000000000
         N           -6.370407796816     0.500474584650     0.205509445712    14.003074004430
         C           -5.106818796816     0.028935584650     0.207263445712    12.000000000000
         N           -4.015585796816     0.790977584650     0.287141445712    14.003074004430
         N           -4.997837796816    -1.346881415350     0.139070445712    14.003074004430
         C           -3.874182796816    -2.240028415350     0.165568445712    12.000000000000
         C           -4.044421796816    -3.564423415350     0.670330445712    12.000000000000
         C           -2.921784796816    -4.406990415350     0.653569445712    12.000000000000
         C           -1.655116796816    -4.014676415350     0.204850445712    12.000000000000
         C           -1.494052796816    -2.707411415350    -0.271549554288    12.000000000000
         C           -2.613048796816    -1.860399415350    -0.308340554288    12.000000000000
         N           -0.239868796816    -2.158571415350    -0.701787554288    14.003074004430
         C            0.097894203184    -1.042661415350    -1.438832554288    12.000000000000
         C            1.575288203184    -0.735230415350    -1.577631554288    12.000000000000
         C            2.566203203184    -1.718502415350    -1.731415554288    12.000000000000
         C            3.913461203184    -1.357176415350    -1.806046554288    12.000000000000
         C            4.318289203184    -0.010367415350    -1.743546554288    12.000000000000
         C            3.309246203184     0.966993584650    -1.643185554288    12.000000000000
         C            1.959323203184     0.616195584650    -1.572572554288    12.000000000000
         C            5.798192203184     0.376979584650    -1.753844554288    12.000000000000
         N            6.534049203184     0.447072584650    -0.479610554288    14.003074004430
         C            6.884697203184    -0.812593415350     0.215984445712    12.000000000000
         C            5.860794203184    -1.262746415350     1.290274445712    12.000000000000
         N            5.544146203184    -0.219626415350     2.295143445712    14.003074004430
         C            6.492998203184    -0.063652415350     3.403572445712    12.000000000000
         C            5.146207203184     1.020873584650     1.585661445712    12.000000000000
         C            6.159062203184     1.486590584650     0.506826445712    12.000000000000
         O           -0.730426796816    -0.298041415350    -1.938355554288    15.994914619570
         C           -5.368145796816    -4.086483415350     1.203235445712    12.000000000000
         H           -1.447600796816     6.025280584650     0.606009445712     1.007825032230
         H           -3.661532796816     4.907547584650     0.652104445712     1.007825032230
         H           -1.579042796816     1.160159584650     0.069847445712     1.007825032230
         H            0.614682203184     4.621765584650     0.284648445712     1.007825032230
         H           -5.604588796816     3.776750584650     0.415450445712     1.007825032230
         H           -7.525914796816     2.170148584650     0.281999445712     1.007825032230
         H           -5.915812796816    -1.764335415350     0.170701445712     1.007825032230
         H           -3.019252796816    -5.427318415350     1.022855445712     1.007825032230
         H           -0.814594796816    -4.697213415350     0.244020445712     1.007825032230
         H           -2.513131796816    -0.866239415350    -0.714267554288     1.007825032230
         H            0.525405203184    -2.702074415350    -0.328551554288     1.007825032230
         H            2.275338203184    -2.764380415350    -1.790110554288     1.007825032230
         H            4.662567203184    -2.143779415350    -1.894860554288     1.007825032230
         H            3.578783203184     2.021112584650    -1.589797554288     1.007825032230
         H            1.194487203184     1.381714584650    -1.461217554288     1.007825032230
         H            6.339459203184    -0.333128415350    -2.395126554288     1.007825032230
         H            5.891351203184     1.364208584650    -2.227961554288     1.007825032230
         H            7.081581203184    -1.665996415350    -0.559462554288     1.007825032230
         H            8.168408203184    -0.578856415350     0.903382445712     1.007825032230
         H            6.315278203184    -2.338200415350     1.920372445712     1.007825032230
         H            4.732640203184    -1.599814415350     0.717057445712     1.007825032230
         H            7.465165203184     0.288283584650     3.040579445712     1.007825032230
         H            6.633202203184    -1.020914415350     3.918900445712     1.007825032230
         H            6.106271203184     0.656554584650     4.133755445712     1.007825032230
         H            4.955613203184     1.947636584650     2.442739445712     1.007825032230
         H            3.904870203184     0.760760584650     0.977955445712     1.007825032230
         H            7.404135203184     1.880549584650     1.211349445712     1.007825032230
         H            5.774841203184     2.441861584650    -0.036581554288     1.007825032230
         H           -6.140577796816    -4.153464415350     0.423682445712     1.007825032230
         H           -5.760598796816    -3.436139415350     1.989895445712     1.007825032230
         H           -5.282964796816    -5.084919415350     1.639979445712     1.007825032230

  Charge       = 0
  Multiplicity = 1
  Basis Set: 6-311++G**
    Blend: 6-311++G**
  Basis Set: (6-311++G** AUX)
    Blend: AUG-CC-PVTZ-JKFIT

    Orbital Energies [Eh]
    ---------------------

    Doubly Occupied:

       1A    -20.523335     2A    -15.603699     3A    -15.594220
       4A    -15.569347     5A    -15.567942     6A    -15.562278
       7A    -15.556435     8A    -15.553147     9A    -11.368921
      10A    -11.363251    11A    -11.322315    12A    -11.307919
      13A    -11.307771    14A    -11.304190    15A    -11.302461
      16A    -11.302456    17A    -11.294205    18A    -11.293422
      19A    -11.286964    20A    -11.281377    21A    -11.277400
      22A    -11.275322    23A    -11.263840    24A    -11.258466
      25A    -11.257310    26A    -11.256943    27A    -11.250761
      28A    -11.248393    29A    -11.247339    30A    -11.245970
      31A    -11.245023    32A    -11.244039    33A    -11.243109
      34A    -11.240605    35A    -11.238180    36A    -11.232914
      37A    -11.221258    38A     -1.389426    39A     -1.334612
      40A     -1.261293    41A     -1.249890    42A     -1.243753
      43A     -1.235463    44A     -1.198072    45A     -1.197716
      46A     -1.162230    47A     -1.138622    48A     -1.102300
      49A     -1.065426    50A     -1.057912    51A     -1.038005
      52A     -1.033088    53A     -1.024422    54A     -1.005455
      55A     -0.991466    56A     -0.976274    57A     -0.945390
      58A     -0.926670    59A     -0.912908    60A     -0.893664
      61A     -0.866578    62A     -0.859211    63A     -0.846294
      64A     -0.841560    65A     -0.831507    66A     -0.826070
      67A     -0.820570    68A     -0.804009    69A     -0.780728
      70A     -0.750060    71A     -0.734042    72A     -0.724662
      73A     -0.711719    74A     -0.698453    75A     -0.689734
      76A     -0.675395    77A     -0.670712    78A     -0.658343
      79A     -0.655782    80A     -0.651158    81A     -0.645896
      82A     -0.641347    83A     -0.634684    84A     -0.633308
      85A     -0.620713    86A     -0.616469    87A     -0.606330
      88A     -0.604721    89A     -0.598145    90A     -0.595709
      91A     -0.593642    92A     -0.590073    93A     -0.584333
      94A     -0.582359    95A     -0.581194    96A     -0.578019
      97A     -0.574758    98A     -0.574490    99A     -0.563843
     100A     -0.548743   101A     -0.545837   102A     -0.530243
     103A     -0.528529   104A     -0.525560   105A     -0.523608
     106A     -0.517128   107A     -0.513514   108A     -0.511629
     109A     -0.508299   110A     -0.503248   111A     -0.500900
     112A     -0.494568   113A     -0.481516   114A     -0.474764
     115A     -0.455453   116A     -0.440327   117A     -0.435996
     118A     -0.428618   119A     -0.426573   120A     -0.423403
     121A     -0.409569   122A     -0.401215   123A     -0.386080
     124A     -0.381139   125A     -0.363465   126A     -0.346599
     127A     -0.341274   128A     -0.333196   129A     -0.313649
     130A     -0.309289   131A     -0.292054

  @DF-RHF Final Energy: -1572.36693085872957

   => Energetics <=

    Nuclear Repulsion Energy =           3758.2324397673587555
    One-Electron Energy =               -9615.9803735892874101
    Two-Electron Energy =                4285.3810029631995349
    Total Energy =                      -1572.3669308587295745

  Dipole Moment: [D]
     X:     0.1479      Y:     0.6180      Z:     1.7072     Total:     1.8217

  Basis Set: (6-311++G** AUX)
    Blend: AUG-CC-PVTZ-RI
	 Reference Energy          =   -1572.3669308587295745 [Eh]
	 Singles Energy            =      -0.0000000000000000 [Eh]
	 Same-Spin Energy          =      -1.4720180514316166 [Eh]
	 Opposite-Spin Energy      =      -4.0486006144128126 [Eh]
	 Correlation Energy        =      -5.5206186658444292 [Eh]
	 Total Energy              =   -1577.8875495245740694 [Eh]

	 ================> DF-SCS-MP2 Energies <==================
	-----------------------------------------------------------
	 SCS Same-Spin Scale       =       0.3333333333333333 [-]
	 SCS Opposite-Spin Scale   =       1.2000000000000000 [-]
	 SCS Same-Spin Energy      =      -0.4906726838105389 [Eh]
	 SCS Opposite-Spin Energy  =      -4.8583207372953749 [Eh]
	 SCS Correlation Energy    =      -5.3489934211059138 [Eh]
	 SCS Total Energy          =   -1577.7159242798354626 [Eh]
	-----------------------------------------------------------

*** Psi4 exiting successfully. Buy a developer a beer!
