                               Psi4 1.3.2 release

  ==> Input File <==

--------------------------------------------------------------------------
molecule {
0 1
 C   -0.117398    4.932631    0.088189
 C   -1.445243    4.550751   -0.143565
 C   -1.821074    3.197828   -0.021593
 C   -0.790854    2.301304    0.352514
 N    0.483140    2.648456    0.582772
 C    0.804604    3.943859    0.446160
 C   -3.221580    2.696500   -0.265524
 C   -4.323284    3.502888   -0.598597
 C   -5.537452    2.832281   -0.778649
 N   -5.690451    1.517019   -0.662823
 C   -4.575263    0.825260   -0.351265
 N   -3.371518    1.361913   -0.147868
 N   -4.741629   -0.534281   -0.244633
 C   -3.839931   -1.581046    0.080229
 C   -3.898610   -2.174034    1.374145
 C   -3.006160   -3.225790    1.633323
 C   -2.074329   -3.701050    0.702682
 C   -2.009585   -3.073408   -0.546230
 C   -2.888741   -2.020726   -0.846461
 N   -1.117839   -3.422921   -1.586189
 C    0.242723   -3.613871   -1.549937
 C    1.074634   -2.759692   -0.615984
 C    0.758674   -1.436345   -0.268834
 C    1.581679   -0.722612    0.604930
 C    2.756034   -1.283484    1.138822
 C    3.095205   -2.586511    0.729634
 C    2.276821   -3.311005   -0.139610
 C    3.655096   -0.483206    2.082602
 N    4.666293    0.430195    1.523842
 C    4.219908    1.682128    0.875216
 C    4.092030    1.639848   -0.669019
 N    5.306080    1.130665   -1.350694
 C    6.389538    2.099561   -1.562701
 C    5.693273   -0.167160   -0.746238
 C    5.822653   -0.141178    0.798939
 O    0.786825   -4.435382   -2.270094
 C   -4.877993   -1.716111    2.440498
 H    0.196365    5.967737   -0.007987
 H   -2.157618    5.321303   -0.427603
 H   -1.023383    1.246922    0.476542
 H    1.846403    4.199529    0.634912
 H   -4.277387    4.579258   -0.708733
 H   -6.440501    3.386612   -1.031996
 H   -5.716320   -0.794400   -0.296143
 H   -3.029201   -3.712767    2.607279
 H   -1.407179   -4.519774    0.945277
 H   -2.855953   -1.530579   -1.810446
 H   -1.441691   -3.705000   -2.500232
 H   -0.131576   -0.968366   -0.679247
 H    1.312670    0.298186    0.870018
 H    4.013308   -3.049745    1.090438
 H    2.548631   -4.316686   -0.451229
 H    3.010595    0.123572    2.734976
 H    4.193579   -1.190991    2.729515
 H    3.023788    2.088708    1.412821
 H    5.282071    2.770186    1.193706
 H    3.826891    2.575124   -1.067745
 H    3.048410    0.756258   -0.987967
 H    6.811285    2.433313   -0.607685
 H    6.013065    2.973203   -2.107037
 H    7.188178    1.648291   -2.162676
 H    6.639842   -0.541224   -1.233861
 H    4.587127   -1.154311   -1.080411
 H    7.055088    0.788121    1.098774
 H    6.077964   -1.163829    1.207837
 H   -5.916599   -1.928649    2.150438
 H   -4.802559   -0.634180    2.618737
 H   -4.711947   -2.204367    3.410693
}
memory 20GB
set_num_threads(6)
psi4_io.set_default_path("/scratch/bdw2292")
set freeze_core True
E, wfn = energy('mp2/6-311++G**',return_wfn=True)
oeprop(wfn,"WIBERG_LOWDIN_INDICES")
clean()
--------------------------------------------------------------------------

    Molecular point group: c1

    Geometry (in Angstrom), charge = 0, multiplicity = 1:

       Center              X                  Y                   Z               Mass
    ------------   -----------------  -----------------  -----------------  -----------------
         C           -0.035276346617     4.962615825593     0.095702733465    12.000000000000
         C           -1.363121346617     4.580735825593    -0.136051266535    12.000000000000
         C           -1.738952346617     3.227812825593    -0.014079266535    12.000000000000
         C           -0.708732346617     2.331288825593     0.360027733465    12.000000000000
         N            0.565261653383     2.678440825593     0.590285733465    14.003074004430
         C            0.886725653383     3.973843825593     0.453673733465    12.000000000000
         C           -3.139458346617     2.726484825593    -0.258010266535    12.000000000000
         C           -4.241162346617     3.532872825593    -0.591083266535    12.000000000000
         C           -5.455330346617     2.862265825593    -0.771135266535    12.000000000000
         N           -5.608329346617     1.547003825593    -0.655309266535    14.003074004430
         C           -4.493141346617     0.855244825593    -0.343751266535    12.000000000000
         N           -3.289396346617     1.391897825593    -0.140354266535    14.003074004430
         N           -4.659507346617    -0.504296174407    -0.237119266535    14.003074004430
         C           -3.757809346617    -1.551061174407     0.087742733465    12.000000000000
         C           -3.816488346617    -2.144049174407     1.381658733465    12.000000000000
         C           -2.924038346617    -3.195805174407     1.640836733465    12.000000000000
         C           -1.992207346617    -3.671065174407     0.710195733465    12.000000000000
         C           -1.927463346617    -3.043423174407    -0.538716266535    12.000000000000
         C           -2.806619346617    -1.990741174407    -0.838947266535    12.000000000000
         N           -1.035717346617    -3.392936174407    -1.578675266535    14.003074004430
         C            0.324844653383    -3.583886174407    -1.542423266535    12.000000000000
         C            1.156755653383    -2.729707174407    -0.608470266535    12.000000000000
         C            0.840795653383    -1.406360174407    -0.261320266535    12.000000000000
         C            1.663800653383    -0.692627174407     0.612443733465    12.000000000000
         C            2.838155653383    -1.253499174407     1.146335733465    12.000000000000
         C            3.177326653383    -2.556526174407     0.737147733465    12.000000000000
         C            2.358942653383    -3.281020174407    -0.132096266535    12.000000000000
         C            3.737217653383    -0.453221174407     2.090115733465    12.000000000000
         N            4.748414653383     0.460179825593     1.531355733465    14.003074004430
         C            4.302029653383     1.712112825593     0.882729733465    12.000000000000
         C            4.174151653383     1.669832825593    -0.661505266535    12.000000000000
         N            5.388201653383     1.160649825593    -1.343180266535    14.003074004430
         C            6.471659653383     2.129545825593    -1.555187266535    12.000000000000
         C            5.775394653383    -0.137175174407    -0.738724266535    12.000000000000
         C            5.904774653383    -0.111193174407     0.806452733465    12.000000000000
         O            0.868946653383    -4.405397174407    -2.262580266535    15.994914619570
         C           -4.795871346617    -1.686126174407     2.448011733465    12.000000000000
         H            0.278486653383     5.997721825593    -0.000473266535     1.007825032230
         H           -2.075496346617     5.351287825593    -0.420089266535     1.007825032230
         H           -0.941261346617     1.276906825593     0.484055733465     1.007825032230
         H            1.928524653383     4.229513825593     0.642425733465     1.007825032230
         H           -4.195265346617     4.609242825593    -0.701219266535     1.007825032230
         H           -6.358379346617     3.416596825593    -1.024482266535     1.007825032230
         H           -5.634198346617    -0.764415174407    -0.288629266535     1.007825032230
         H           -2.947079346617    -3.682782174407     2.614792733465     1.007825032230
         H           -1.325057346617    -4.489789174407     0.952790733465     1.007825032230
         H           -2.773831346617    -1.500594174407    -1.802932266535     1.007825032230
         H           -1.359569346617    -3.675015174407    -2.492718266535     1.007825032230
         H           -0.049454346617    -0.938381174407    -0.671733266535     1.007825032230
         H            1.394791653383     0.328170825593     0.877531733465     1.007825032230
         H            4.095429653383    -3.019760174407     1.097951733465     1.007825032230
         H            2.630752653383    -4.286701174407    -0.443715266535     1.007825032230
         H            3.092716653383     0.153556825593     2.742489733465     1.007825032230
         H            4.275700653383    -1.161006174407     2.737028733465     1.007825032230
         H            3.105909653383     2.118692825593     1.420334733465     1.007825032230
         H            5.364192653383     2.800170825593     1.201219733465     1.007825032230
         H            3.909012653383     2.605108825593    -1.060231266535     1.007825032230
         H            3.130531653383     0.786242825593    -0.980453266535     1.007825032230
         H            6.893406653383     2.463297825593    -0.600171266535     1.007825032230
         H            6.095186653383     3.003187825593    -2.099523266535     1.007825032230
         H            7.270299653383     1.678275825593    -2.155162266535     1.007825032230
         H            6.721963653383    -0.511239174407    -1.226347266535     1.007825032230
         H            4.669248653383    -1.124326174407    -1.072897266535     1.007825032230
         H            7.137209653383     0.818105825593     1.106287733465     1.007825032230
         H            6.160085653383    -1.133844174407     1.215350733465     1.007825032230
         H           -5.834477346617    -1.898664174407     2.157951733465     1.007825032230
         H           -4.720437346617    -0.604195174407     2.626250733465     1.007825032230
         H           -4.629825346617    -2.174382174407     3.418206733465     1.007825032230

  Charge       = 0
  Multiplicity = 1
  Basis Set: 6-311++G**
    Blend: 6-311++G**
  Basis Set: (6-311++G** AUX)
    Blend: AUG-CC-PVTZ-JKFIT

    Orbital Energies [Eh]
    ---------------------

    Doubly Occupied:

       1A    -20.524339     2A    -15.593185     3A    -15.587505
       4A    -15.583537     5A    -15.570079     6A    -15.567019
       7A    -15.566739     8A    -15.549061     9A    -11.371475
      10A    -11.360108    11A    -11.331855    12A    -11.322652
      13A    -11.311603    14A    -11.307929    15A    -11.298243
      16A    -11.296147    17A    -11.295326    18A    -11.294744
      19A    -11.294378    20A    -11.286466    21A    -11.276105
      22A    -11.275963    23A    -11.271373    24A    -11.262079
      25A    -11.261762    26A    -11.252014    27A    -11.249846
      28A    -11.248672    29A    -11.248451    30A    -11.248227
      31A    -11.247554    32A    -11.245512    33A    -11.243490
      34A    -11.241792    35A    -11.239683    36A    -11.237497
      37A    -11.232398    38A     -1.388624    39A     -1.344488
      40A     -1.275190    41A     -1.254561    42A     -1.243573
      43A     -1.239279    44A     -1.207758    45A     -1.194914
      46A     -1.153580    47A     -1.146706    48A     -1.113540
      49A     -1.073657    50A     -1.052647    51A     -1.046812
      52A     -1.043499    53A     -1.016402    54A     -1.015338
      55A     -0.991616    56A     -0.971092    57A     -0.947957
      58A     -0.926468    59A     -0.923766    60A     -0.901249
      61A     -0.871355    62A     -0.862031    63A     -0.854000
      64A     -0.839742    65A     -0.835512    66A     -0.833027
      67A     -0.823715    68A     -0.812214    69A     -0.775419
      70A     -0.753219    71A     -0.750993    72A     -0.724308
      73A     -0.709970    74A     -0.703161    75A     -0.691559
      76A     -0.680226    77A     -0.670127    78A     -0.666698
      79A     -0.663957    80A     -0.659556    81A     -0.652518
      82A     -0.649250    83A     -0.643101    84A     -0.635096
      85A     -0.624795    86A     -0.613284    87A     -0.611798
      88A     -0.609457    89A     -0.607862    90A     -0.601533
      91A     -0.598619    92A     -0.596756    93A     -0.594155
      94A     -0.593270    95A     -0.582080    96A     -0.580818
      97A     -0.572110    98A     -0.564223    99A     -0.558600
     100A     -0.557625   101A     -0.548194   102A     -0.541212
     103A     -0.527576   104A     -0.525508   105A     -0.520785
     106A     -0.519559   107A     -0.515652   108A     -0.507328
     109A     -0.498000   110A     -0.494257   111A     -0.492347
     112A     -0.487588   113A     -0.482363   114A     -0.471984
     115A     -0.463349   116A     -0.446853   117A     -0.439883
     118A     -0.432955   119A     -0.421672   120A     -0.415208
     121A     -0.412705   122A     -0.396720   123A     -0.382140
     124A     -0.372143   125A     -0.364673   126A     -0.347784
     127A     -0.340797   128A     -0.332457   129A     -0.327822
     130A     -0.319475   131A     -0.302896

  @DF-RHF Final Energy: -1572.31102583096140

   => Energetics <=

    Nuclear Repulsion Energy =           3871.4891142930496244
    One-Electron Energy =               -9841.7060002995531249
    Two-Electron Energy =                4397.9058601755414202
    Total Energy =                      -1572.3110258309616256

  Dipole Moment: [D]
     X:    -4.2144      Y:     4.9009      Z:     2.2547     Total:     6.8457

  Basis Set: (6-311++G** AUX)
    Blend: AUG-CC-PVTZ-RI
	 Reference Energy          =   -1572.3110258309613982 [Eh]
	 Singles Energy            =      -0.0000000000000000 [Eh]
	 Same-Spin Energy          =      -1.4749413895088157 [Eh]
	 Opposite-Spin Energy      =      -4.0532436346127678 [Eh]
	 Correlation Energy        =      -5.5281850241215835 [Eh]
	 Total Energy              =   -1577.8392108550829107 [Eh]

	 ================> DF-SCS-MP2 Energies <==================
	-----------------------------------------------------------
	 SCS Same-Spin Scale       =       0.3333333333333333 [-]
	 SCS Opposite-Spin Scale   =       1.2000000000000000 [-]
	 SCS Same-Spin Energy      =      -0.4916471298362719 [Eh]
	 SCS Opposite-Spin Energy  =      -4.8638923615353216 [Eh]
	 SCS Correlation Energy    =      -5.3555394913715935 [Eh]
	 SCS Total Energy          =   -1577.6665653223330992 [Eh]
	-----------------------------------------------------------

*** Psi4 exiting successfully. Buy a developer a beer!
