                               Psi4 1.3.2 release

  ==> Input File <==

--------------------------------------------------------------------------
molecule {
0 1
 C    0.683419    4.741231   -2.377399
 C    1.918462    4.566466   -1.737498
 C    2.324117    3.280371   -1.328473
 C    1.423579    2.229093   -1.631933
 N    0.240375    2.372927   -2.242153
 C   -0.117237    3.615299   -2.600832
 C    3.624399    3.001748   -0.613324
 C    4.618128    3.949421   -0.321075
 C    5.744417    3.459507    0.349903
 N    5.907861    2.193265    0.723456
 C    4.895883    1.354399    0.417191
 N    3.785721    1.720483   -0.230256
 N    5.063770    0.037503    0.824878
 C    4.281742   -1.162103    0.640645
 C    4.878525   -2.439038    0.868890
 C    4.072308   -3.571177    0.657435
 C    2.738664   -3.514268    0.234250
 C    2.162902   -2.255834    0.032888
 C    2.941344   -1.106759    0.242159
 N    0.824834   -1.999584   -0.407735
 C   -0.154259   -2.843576   -0.875204
 C   -1.559512   -2.286600   -1.003934
 C   -1.834315   -0.960370   -1.380306
 C   -3.151033   -0.499944   -1.439728
 C   -4.238277   -1.344555   -1.148294
 C   -3.950472   -2.677930   -0.798847
 C   -2.636517   -3.148276   -0.738164
 C   -5.672795   -0.814167   -1.150550
 N   -6.176776   -0.130000    0.054490
 C   -5.715176    1.245235    0.347938
 C   -4.497012    1.325466    1.304060
 N   -4.681691    0.595925    2.580655
 C   -5.426970    1.290786    3.637026
 C   -5.100521   -0.796089    2.284855
 C   -6.301487   -0.907951    1.308836
 O    0.072601   -4.007014   -1.167013
 C    6.322802   -2.621268    1.302284
 H    0.348071    5.724389   -2.694087
 H    2.533473    5.444558   -1.556695
 H    1.686241    1.206706   -1.385766
 H   -1.082986    3.707833   -3.094915
 H    4.558548    4.996079   -0.593230
 H    6.565590    4.129283    0.603951
 H    5.965978   -0.069545    1.263651
 H    4.498769   -4.562209    0.808148
 H    2.160162   -4.412445    0.055050
 H    2.504004   -0.134125    0.090370
 H    0.590760   -1.018417   -0.445133
 H   -1.017185   -0.284910   -1.626477
 H   -3.326482    0.539613   -1.716833
 H   -4.760935   -3.363653   -0.553179
 H   -2.423322   -4.177856   -0.461781
 H   -5.785455   -0.112905   -1.989991
 H   -6.355267   -1.654374   -1.344114
 H   -5.566732    1.798587   -0.556231
 H   -6.895644    1.962124    1.122443
 H   -4.279419    2.772450    1.614294
 H   -3.550640    0.930848    0.807664
 H   -6.471477    1.446766    3.344918
 H   -4.968518    2.263902    3.846237
 H   -5.404261    0.703744    4.562528
 H   -5.292294   -1.331078    3.228319
 H   -3.934672   -1.461717    1.628509
 H   -7.531803   -0.317028    2.094098
 H   -6.550098   -1.995229    1.078361
 H    6.502922   -2.176573    2.291178
 H    7.018127   -2.147656    0.594981
 H    6.619581   -3.676947    1.372369
}
memory 20GB
set_num_threads(6)
psi4_io.set_default_path("/scratch/bdw2292")
set freeze_core True
E, wfn = energy('mp2/6-311++G**',return_wfn=True)
oeprop(wfn,"WIBERG_LOWDIN_INDICES")
clean()
--------------------------------------------------------------------------

    Molecular point group: c1

    Geometry (in Angstrom), charge = 0, multiplicity = 1:

       Center              X                  Y                   Z               Mass
    ------------   -----------------  -----------------  -----------------  -----------------
         C            0.553534131418     4.698521636395    -2.267646497959    12.000000000000
         C            1.788577131418     4.523756636395    -1.627745497959    12.000000000000
         C            2.194232131418     3.237661636395    -1.218720497959    12.000000000000
         C            1.293694131418     2.186383636395    -1.522180497959    12.000000000000
         N            0.110490131418     2.330217636395    -2.132400497959    14.003074004430
         C           -0.247121868582     3.572589636395    -2.491079497959    12.000000000000
         C            3.494514131418     2.959038636395    -0.503571497959    12.000000000000
         C            4.488243131418     3.906711636395    -0.211322497959    12.000000000000
         C            5.614532131418     3.416797636395     0.459655502041    12.000000000000
         N            5.777976131418     2.150555636395     0.833208502041    14.003074004430
         C            4.765998131418     1.311689636395     0.526943502041    12.000000000000
         N            3.655836131418     1.677773636395    -0.120503497959    14.003074004430
         N            4.933885131418    -0.005206363605     0.934630502041    14.003074004430
         C            4.151857131418    -1.204812363605     0.750397502041    12.000000000000
         C            4.748640131418    -2.481747363605     0.978642502041    12.000000000000
         C            3.942423131418    -3.613886363605     0.767187502041    12.000000000000
         C            2.608779131418    -3.556977363605     0.344002502041    12.000000000000
         C            2.033017131418    -2.298543363605     0.142640502041    12.000000000000
         C            2.811459131418    -1.149468363605     0.351911502041    12.000000000000
         N            0.694949131418    -2.042293363605    -0.297982497959    14.003074004430
         C           -0.284143868582    -2.886285363605    -0.765451497959    12.000000000000
         C           -1.689396868582    -2.329309363605    -0.894181497959    12.000000000000
         C           -1.964199868582    -1.003079363605    -1.270553497959    12.000000000000
         C           -3.280917868582    -0.542653363605    -1.329975497959    12.000000000000
         C           -4.368161868582    -1.387264363605    -1.038541497959    12.000000000000
         C           -4.080356868582    -2.720639363605    -0.689094497959    12.000000000000
         C           -2.766401868582    -3.190985363605    -0.628411497959    12.000000000000
         C           -5.802679868582    -0.856876363605    -1.040797497959    12.000000000000
         N           -6.306660868582    -0.172709363605     0.164242502041    14.003074004430
         C           -5.845060868582     1.202525636395     0.457690502041    12.000000000000
         C           -4.626896868582     1.282756636395     1.413812502041    12.000000000000
         N           -4.811575868582     0.553215636395     2.690407502041    14.003074004430
         C           -5.556854868582     1.248076636395     3.746778502041    12.000000000000
         C           -5.230405868582    -0.838798363605     2.394607502041    12.000000000000
         C           -6.431371868582    -0.950660363605     1.418588502041    12.000000000000
         O           -0.057283868582    -4.049723363605    -1.057260497959    15.994914619570
         C            6.192917131418    -2.663977363605     1.412036502041    12.000000000000
         H            0.218186131418     5.681679636395    -2.584334497959     1.007825032230
         H            2.403588131418     5.401848636395    -1.446942497959     1.007825032230
         H            1.556356131418     1.163996636395    -1.276013497959     1.007825032230
         H           -1.212870868582     3.665123636395    -2.985162497959     1.007825032230
         H            4.428663131418     4.953369636395    -0.483477497959     1.007825032230
         H            6.435705131418     4.086573636395     0.713703502041     1.007825032230
         H            5.836093131418    -0.112254363605     1.373403502041     1.007825032230
         H            4.368884131418    -4.604918363605     0.917900502041     1.007825032230
         H            2.030277131418    -4.455154363605     0.164802502041     1.007825032230
         H            2.374119131418    -0.176834363605     0.200122502041     1.007825032230
         H            0.460875131418    -1.061126363605    -0.335380497959     1.007825032230
         H           -1.147069868582    -0.327619363605    -1.516724497959     1.007825032230
         H           -3.456366868582     0.496903636395    -1.607080497959     1.007825032230
         H           -4.890819868582    -3.406362363605    -0.443426497959     1.007825032230
         H           -2.553206868582    -4.220565363605    -0.352028497959     1.007825032230
         H           -5.915339868582    -0.155614363605    -1.880238497959     1.007825032230
         H           -6.485151868582    -1.697083363605    -1.234361497959     1.007825032230
         H           -5.696616868582     1.755877636395    -0.446478497959     1.007825032230
         H           -7.025528868582     1.919414636395     1.232195502041     1.007825032230
         H           -4.409303868582     2.729740636395     1.724046502041     1.007825032230
         H           -3.680524868582     0.888138636395     0.917416502041     1.007825032230
         H           -6.601361868582     1.404056636395     3.454670502041     1.007825032230
         H           -5.098402868582     2.221192636395     3.955989502041     1.007825032230
         H           -5.534145868582     0.661034636395     4.672280502041     1.007825032230
         H           -5.422178868582    -1.373787363605     3.338071502041     1.007825032230
         H           -4.064556868582    -1.504426363605     1.738261502041     1.007825032230
         H           -7.661687868582    -0.359737363605     2.203850502041     1.007825032230
         H           -6.679982868582    -2.037938363605     1.188113502041     1.007825032230
         H            6.373037131418    -2.219282363605     2.400930502041     1.007825032230
         H            6.888242131418    -2.190365363605     0.704733502041     1.007825032230
         H            6.489696131418    -3.719656363605     1.482121502041     1.007825032230

  Charge       = 0
  Multiplicity = 1
  Basis Set: 6-311++G**
    Blend: 6-311++G**
  Basis Set: (6-311++G** AUX)
    Blend: AUG-CC-PVTZ-JKFIT

    Orbital Energies [Eh]
    ---------------------

    Doubly Occupied:

       1A    -20.523250     2A    -15.604090     3A    -15.601318
       4A    -15.587835     5A    -15.574539     6A    -15.573547
       7A    -15.569286     8A    -15.554399     9A    -11.375922
      10A    -11.365605    11A    -11.334742    12A    -11.314324
      13A    -11.313679    14A    -11.306010    15A    -11.301672
      16A    -11.301506    17A    -11.301476    18A    -11.301073
      19A    -11.298540    20A    -11.293120    21A    -11.289668
      22A    -11.281647    23A    -11.280793    24A    -11.265804
      25A    -11.260126    26A    -11.258913    27A    -11.256510
      28A    -11.252720    29A    -11.251721    30A    -11.249209
      31A    -11.247929    32A    -11.247195    33A    -11.243629
      34A    -11.240382    35A    -11.235310    36A    -11.230211
      37A    -11.225893    38A     -1.388486    39A     -1.344268
      40A     -1.279009    41A     -1.251470    42A     -1.247434
      43A     -1.241136    44A     -1.209759    45A     -1.201006
      46A     -1.164021    47A     -1.139798    48A     -1.115999
      49A     -1.075593    50A     -1.061235    51A     -1.048860
      52A     -1.038349    53A     -1.026455    54A     -1.008162
      55A     -1.001907    56A     -0.979418    57A     -0.947100
      58A     -0.929010    59A     -0.926566    60A     -0.901019
      61A     -0.873038    62A     -0.867792    63A     -0.858248
      64A     -0.849299    65A     -0.839519    66A     -0.836462
      67A     -0.825840    68A     -0.807647    69A     -0.779100
      70A     -0.754615    71A     -0.740475    72A     -0.731976
      73A     -0.722151    74A     -0.713143    75A     -0.699348
      76A     -0.683455    77A     -0.679973    78A     -0.668725
      79A     -0.659988    80A     -0.657684    81A     -0.652251
      82A     -0.649076    83A     -0.638123    84A     -0.631805
      85A     -0.624414    86A     -0.619335    87A     -0.613202
      88A     -0.610744    89A     -0.608952    90A     -0.604366
      91A     -0.602672    92A     -0.600000    93A     -0.594293
      94A     -0.593452    95A     -0.588568    96A     -0.581567
      97A     -0.579845    98A     -0.577332    99A     -0.568014
     100A     -0.561822   101A     -0.548212   102A     -0.544522
     103A     -0.541283   104A     -0.532421   105A     -0.528128
     106A     -0.523808   107A     -0.514410   108A     -0.509375
     109A     -0.509148   110A     -0.506783   111A     -0.498138
     112A     -0.493655   113A     -0.485898   114A     -0.480827
     115A     -0.457009   116A     -0.452272   117A     -0.443355
     118A     -0.430846   119A     -0.425853   120A     -0.420614
     121A     -0.414712   122A     -0.400525   123A     -0.395523
     124A     -0.380296   125A     -0.373838   126A     -0.348037
     127A     -0.346345   128A     -0.344440   129A     -0.314938
     130A     -0.310775   131A     -0.289969

  @DF-RHF Final Energy: -1572.33071513631421

   => Energetics <=

    Nuclear Repulsion Energy =           3731.5013722486410188
    One-Electron Energy =               -9560.9563584361440007
    Two-Electron Energy =                4257.1242710511887708
    Total Energy =                      -1572.3307151363142111

  Dipole Moment: [D]
     X:     1.3742      Y:     6.0394      Z:    -0.0596     Total:     6.1940

  Basis Set: (6-311++G** AUX)
    Blend: AUG-CC-PVTZ-RI
	 Reference Energy          =   -1572.3307151363142111 [Eh]
	 Singles Energy            =      -0.0000000000000000 [Eh]
	 Same-Spin Energy          =      -1.4702906485239593 [Eh]
	 Opposite-Spin Energy      =      -4.0473759369365698 [Eh]
	 Correlation Energy        =      -5.5176665854605291 [Eh]
	 Total Energy              =   -1577.8483817217747855 [Eh]

	 ================> DF-SCS-MP2 Energies <==================
	-----------------------------------------------------------
	 SCS Same-Spin Scale       =       0.3333333333333333 [-]
	 SCS Opposite-Spin Scale   =       1.2000000000000000 [-]
	 SCS Same-Spin Energy      =      -0.4900968828413197 [Eh]
	 SCS Opposite-Spin Energy  =      -4.8568511243238834 [Eh]
	 SCS Correlation Energy    =      -5.3469480071652029 [Eh]
	 SCS Total Energy          =   -1577.6776631434793217 [Eh]
	-----------------------------------------------------------

*** Psi4 exiting successfully. Buy a developer a beer!
