                               Psi4 1.3.2 release

  ==> Input File <==

--------------------------------------------------------------------------
molecule {
0 1
 C   -0.425028    4.116099    2.314204
 C   -1.591234    3.922914    1.562075
 C   -2.012027    2.618253    1.233585
 C   -1.187470    1.564572    1.703404
 N   -0.071408    1.734905    2.425302
 C    0.295549    2.989115    2.721803
 C   -3.249150    2.326286    0.421489
 C   -4.115930    3.291970   -0.119100
 C   -5.188754    2.798819   -0.871277
 N   -5.421061    1.508277   -1.094846
 C   -4.538960    0.659124   -0.531430
 N   -3.489560    1.018990    0.207692
 N   -4.757994   -0.679240   -0.750081
 C   -4.029428   -1.801300   -0.279944
 C   -4.556206   -2.591451    0.781978
 C   -3.779716   -3.680025    1.210914
 C   -2.521303   -3.991865    0.681397
 C   -2.017164   -3.174718   -0.335250
 C   -2.788826   -2.118245   -0.838737
 N   -0.757585   -3.313680   -0.947704
 C    0.442352   -3.447759   -0.301047
 C    1.152737   -2.139872   -0.016018
 C    1.050915   -1.014021   -0.850050
 C    1.723557    0.166470   -0.528814
 C    2.541700    0.257415    0.612807
 C    2.684893   -0.897968    1.404589
 C    2.013454   -2.082219    1.092392
 C    3.291040    1.548216    0.946225
 N    4.596919    1.789914    0.305062
 C    4.636540    2.111210   -1.139195
 C    4.877065    0.890031   -2.064065
 N    6.072333    0.088705   -1.711887
 C    7.364215    0.585471   -2.198870
 C    6.001642   -0.270654   -0.274911
 C    5.743288    0.928349    0.674940
 O    0.916090   -4.530222   -0.000601
 C   -5.887609   -2.284916    1.444320
 H   -0.083058    5.111962    2.580212
 H   -2.148463    4.801905    1.247618
 H   -1.446403    0.533188    1.480631
 H    1.207290    3.090843    3.308228
 H   -3.987151    4.360014    0.005987
 H   -5.901052    3.486061   -1.326986
 H   -5.636428   -0.861662   -1.213447
 H   -4.148152   -4.308479    2.020716
 H   -1.931997   -4.819455    1.059768
 H   -2.408225   -1.473942   -1.619795
 H   -0.601453   -3.459675   -1.934770
 H    0.423205   -1.056297   -1.735785
 H    1.603458    1.031218   -1.181474
 H    3.330743   -0.879960    2.282052
 H    2.127379   -2.969400    1.710403
 H    2.644993    2.400369    0.689913
 H    3.454615    1.589189    2.032663
 H    3.799081    2.671747   -1.418120
 H    5.886289    3.046145   -1.359015
 H    5.046779    1.407257   -3.441050
 H    3.931047    0.158096   -2.060489
 H    7.619244    1.543719   -1.732572
 H    7.332097    0.717946   -3.286318
 H    8.156017   -0.138024   -1.973251
 H    7.003141   -0.856011    0.040276
 H    4.872375   -1.207624   -0.125280
 H    7.038861    1.822726    0.574153
 H    5.661416    0.605310    1.729928
 H   -6.722992   -2.415504    0.742277
 H   -5.926617   -1.249732    1.811559
 H   -6.094208   -2.932055    2.307852
}
memory 20GB
set_num_threads(6)
psi4_io.set_default_path("/scratch/bdw2292")
set freeze_core True
E, wfn = energy('mp2/6-311++G**',return_wfn=True)
oeprop(wfn,"WIBERG_LOWDIN_INDICES")
clean()
--------------------------------------------------------------------------

    Molecular point group: c1

    Geometry (in Angstrom), charge = 0, multiplicity = 1:

       Center              X                  Y                   Z               Mass
    ------------   -----------------  -----------------  -----------------  -----------------
         C           -0.316716570942     4.150981155510     2.150457431442    12.000000000000
         C           -1.482922570942     3.957796155510     1.398328431442    12.000000000000
         C           -1.903715570942     2.653135155510     1.069838431442    12.000000000000
         C           -1.079158570942     1.599454155510     1.539657431442    12.000000000000
         N            0.036903429058     1.769787155510     2.261555431442    14.003074004430
         C            0.403860429058     3.023997155510     2.558056431442    12.000000000000
         C           -3.140838570942     2.361168155510     0.257742431442    12.000000000000
         C           -4.007618570942     3.326852155510    -0.282846568558    12.000000000000
         C           -5.080442570942     2.833701155510    -1.035023568558    12.000000000000
         N           -5.312749570942     1.543159155510    -1.258592568558    14.003074004430
         C           -4.430648570942     0.694006155510    -0.695176568558    12.000000000000
         N           -3.381248570942     1.053872155510     0.043945431442    14.003074004430
         N           -4.649682570942    -0.644357844490    -0.913827568558    14.003074004430
         C           -3.921116570942    -1.766417844490    -0.443690568558    12.000000000000
         C           -4.447894570942    -2.556568844490     0.618231431442    12.000000000000
         C           -3.671404570942    -3.645142844490     1.047167431442    12.000000000000
         C           -2.412991570942    -3.956982844490     0.517650431442    12.000000000000
         C           -1.908852570942    -3.139835844490    -0.498996568558    12.000000000000
         C           -2.680514570942    -2.083362844490    -1.002483568558    12.000000000000
         N           -0.649273570942    -3.278797844490    -1.111450568558    14.003074004430
         C            0.550663429058    -3.412876844490    -0.464793568558    12.000000000000
         C            1.261048429058    -2.104989844490    -0.179764568558    12.000000000000
         C            1.159226429058    -0.979138844490    -1.013796568558    12.000000000000
         C            1.831868429058     0.201352155510    -0.692560568558    12.000000000000
         C            2.650011429058     0.292297155510     0.449060431442    12.000000000000
         C            2.793204429058    -0.863085844490     1.240842431442    12.000000000000
         C            2.121765429058    -2.047336844490     0.928645431442    12.000000000000
         C            3.399351429058     1.583098155510     0.782478431442    12.000000000000
         N            4.705230429058     1.824796155510     0.141315431442    14.003074004430
         C            4.744851429058     2.146092155510    -1.302941568558    12.000000000000
         C            4.985376429058     0.924913155510    -2.227811568558    12.000000000000
         N            6.180644429058     0.123587155510    -1.875633568558    14.003074004430
         C            7.472526429058     0.620353155510    -2.362616568558    12.000000000000
         C            6.109953429058    -0.235771844490    -0.438657568558    12.000000000000
         C            5.851599429058     0.963231155510     0.511193431442    12.000000000000
         O            1.024401429058    -4.495339844490    -0.164347568558    15.994914619570
         C           -5.779297570942    -2.250033844490     1.280573431442    12.000000000000
         H            0.025253429058     5.146844155510     2.416465431442     1.007825032230
         H           -2.040151570942     4.836787155510     1.083871431442     1.007825032230
         H           -1.338091570942     0.568070155510     1.316884431442     1.007825032230
         H            1.315601429058     3.125725155510     3.144481431442     1.007825032230
         H           -3.878839570942     4.394896155510    -0.157759568558     1.007825032230
         H           -5.792740570942     3.520943155510    -1.490732568558     1.007825032230
         H           -5.528116570942    -0.826779844490    -1.377193568558     1.007825032230
         H           -4.039840570942    -4.273596844490     1.856969431442     1.007825032230
         H           -1.823685570942    -4.784572844490     0.896021431442     1.007825032230
         H           -2.299913570942    -1.439059844490    -1.783541568558     1.007825032230
         H           -0.493141570942    -3.424792844490    -2.098516568558     1.007825032230
         H            0.531516429058    -1.021414844490    -1.899531568558     1.007825032230
         H            1.711769429058     1.066100155510    -1.345220568558     1.007825032230
         H            3.439054429058    -0.845077844490     2.118305431442     1.007825032230
         H            2.235690429058    -2.934517844490     1.546656431442     1.007825032230
         H            2.753304429058     2.435251155510     0.526166431442     1.007825032230
         H            3.562926429058     1.624071155510     1.868916431442     1.007825032230
         H            3.907392429058     2.706629155510    -1.581866568558     1.007825032230
         H            5.994600429058     3.081027155510    -1.522761568558     1.007825032230
         H            5.155090429058     1.442139155510    -3.604796568558     1.007825032230
         H            4.039358429058     0.192978155510    -2.224235568558     1.007825032230
         H            7.727555429058     1.578601155510    -1.896318568558     1.007825032230
         H            7.440408429058     0.752828155510    -3.450064568558     1.007825032230
         H            8.264328429058    -0.103141844490    -2.136997568558     1.007825032230
         H            7.111452429058    -0.821128844490    -0.123470568558     1.007825032230
         H            4.980686429058    -1.172741844490    -0.289026568558     1.007825032230
         H            7.147172429058     1.857608155510     0.410406431442     1.007825032230
         H            5.769727429058     0.640192155510     1.566181431442     1.007825032230
         H           -6.614680570942    -2.380621844490     0.578530431442     1.007825032230
         H           -5.818305570942    -1.214849844490     1.647812431442     1.007825032230
         H           -5.985896570942    -2.897172844490     2.144105431442     1.007825032230

  Charge       = 0
  Multiplicity = 1
  Basis Set: 6-311++G**
    Blend: 6-311++G**
  Basis Set: (6-311++G** AUX)
    Blend: AUG-CC-PVTZ-JKFIT

    Orbital Energies [Eh]
    ---------------------

    Doubly Occupied:

       1A    -20.551631     2A    -15.588725     3A    -15.574401
       4A    -15.571065     5A    -15.566823     6A    -15.561923
       7A    -15.561085     8A    -15.553178     9A    -11.366292
      10A    -11.366249    11A    -11.327214    12A    -11.308899
      13A    -11.308192    14A    -11.304526    15A    -11.304232
      16A    -11.301294    17A    -11.292037    18A    -11.289689
      19A    -11.288359    20A    -11.287092    21A    -11.281077
      22A    -11.278698    23A    -11.270627    24A    -11.257015
      25A    -11.256231    26A    -11.254761    27A    -11.254515
      28A    -11.251278    29A    -11.248004    30A    -11.244913
      31A    -11.244911    32A    -11.244065    33A    -11.242518
      34A    -11.242469    35A    -11.241611    36A    -11.240187
      37A    -11.234592    38A     -1.402187    39A     -1.340622
      40A     -1.267652    41A     -1.251361    42A     -1.245329
      43A     -1.240052    44A     -1.203775    45A     -1.198795
      46A     -1.160106    47A     -1.141255    48A     -1.107443
      49A     -1.068444    50A     -1.056959    51A     -1.041612
      52A     -1.039191    53A     -1.022941    54A     -1.010039
      55A     -0.998783    56A     -0.976293    57A     -0.944111
      58A     -0.927955    59A     -0.918791    60A     -0.895562
      61A     -0.866212    62A     -0.863677    63A     -0.848501
      64A     -0.843388    65A     -0.834543    66A     -0.831730
      67A     -0.827210    68A     -0.810893    69A     -0.774868
      70A     -0.749661    71A     -0.743062    72A     -0.720047
      73A     -0.717425    74A     -0.707053    75A     -0.702609
      76A     -0.679618    77A     -0.675294    78A     -0.667824
      79A     -0.662716    80A     -0.659751    81A     -0.653550
      82A     -0.647722    83A     -0.647430    84A     -0.642661
      85A     -0.629166    86A     -0.619532    87A     -0.614035
      88A     -0.606365    89A     -0.604330    90A     -0.601715
      91A     -0.595703    92A     -0.593752    93A     -0.591215
      94A     -0.590278    95A     -0.583183    96A     -0.577619
      97A     -0.576786    98A     -0.571196    99A     -0.553498
     100A     -0.551797   101A     -0.540392   102A     -0.536488
     103A     -0.535393   104A     -0.526683   105A     -0.525438
     106A     -0.517200   107A     -0.514170   108A     -0.507398
     109A     -0.504657   110A     -0.498914   111A     -0.492156
     112A     -0.491295   113A     -0.487421   114A     -0.467523
     115A     -0.452400   116A     -0.444520   117A     -0.442901
     118A     -0.431391   119A     -0.422397   120A     -0.416529
     121A     -0.407545   122A     -0.393115   123A     -0.390514
     124A     -0.378604   125A     -0.358766   126A     -0.343379
     127A     -0.340958   128A     -0.338788   129A     -0.322950
     130A     -0.313478   131A     -0.308560

  @DF-RHF Final Energy: -1572.29238577444016

   => Energetics <=

    Nuclear Repulsion Energy =           3868.6824580172469723
    One-Electron Energy =               -9836.1313464942650171
    Two-Electron Energy =                4395.1565027025781092
    Total Energy =                      -1572.2923857744399356

  Dipole Moment: [D]
     X:    -3.1539      Y:     4.7478      Z:     0.3517     Total:     5.7107

  Basis Set: (6-311++G** AUX)
    Blend: AUG-CC-PVTZ-RI
	 Reference Energy          =   -1572.2923857744401630 [Eh]
	 Singles Energy            =      -0.0000000000000000 [Eh]
	 Same-Spin Energy          =      -1.4722754076318725 [Eh]
	 Opposite-Spin Energy      =      -4.0504630479655850 [Eh]
	 Correlation Energy        =      -5.5227384555974570 [Eh]
	 Total Energy              =   -1577.8151242300375543 [Eh]

	 ================> DF-SCS-MP2 Energies <==================
	-----------------------------------------------------------
	 SCS Same-Spin Scale       =       0.3333333333333333 [-]
	 SCS Opposite-Spin Scale   =       1.2000000000000000 [-]
	 SCS Same-Spin Energy      =      -0.4907584692106242 [Eh]
	 SCS Opposite-Spin Energy  =      -4.8605556575587014 [Eh]
	 SCS Correlation Energy    =      -5.3513141267693261 [Eh]
	 SCS Total Energy          =   -1577.6436999012094020 [Eh]
	-----------------------------------------------------------

*** Psi4 exiting successfully. Buy a developer a beer!
