 Gaussian 09, Revision A.02,
 Gaussian 09:  EM64L-G09RevA.02 11-Jun-2009

 --------------------------------------------------
 #P opt=(,maxcycle=400) wB97XD/6-31G* MaxDisk=100GB
 --------------------------------------------------

 --------------------------------------------------------------
 MOLECULE0 Rotatable Bond Optimization on node37.bme.utexas.edu
 --------------------------------------------------------------
 Symbolic Z-matrix:
 Charge =  0 Multiplicity = 1

 SCF Done:  E(RwB97XD) =  -1581.51197510     A.U. after   16 cycles
 SCF Done:  E(RwB97XD) =  -1581.57276251     A.U. after   13 cycles
 SCF Done:  E(RwB97XD) =  -1581.66722074     A.U. after   14 cycles
 SCF Done:  E(RwB97XD) =  -1581.72567211     A.U. after   17 cycles
 SCF Done:  E(RwB97XD) =  -1581.74912351     A.U. after   14 cycles
 SCF Done:  E(RwB97XD) =  -1581.75306449     A.U. after   17 cycles
 SCF Done:  E(RwB97XD) =  -1581.75685007     A.U. after   17 cycles
 SCF Done:  E(RwB97XD) =  -1581.75887377     A.U. after   17 cycles
 SCF Done:  E(RwB97XD) =  -1581.76121114     A.U. after   14 cycles
 SCF Done:  E(RwB97XD) =  -1581.76111641     A.U. after   17 cycles
 SCF Done:  E(RwB97XD) =  -1581.76737817     A.U. after   11 cycles
 SCF Done:  E(RwB97XD) =  -1581.76737945     A.U. after    8 cycles
 SCF Done:  E(RwB97XD) =  -1581.76737985     A.U. after    8 cycles
 SCF Done:  E(RwB97XD) =  -1581.76738012     A.U. after    7 cycles
 SCF Done:  E(RwB97XD) =  -1581.76738002     A.U. after    8 cycles
 SCF Done:  E(RwB97XD) =  -1581.76738017     A.U. after    7 cycles
 SCF Done:  E(RwB97XD) =  -1581.76738028     A.U. after    7 cycles
 SCF Done:  E(RwB97XD) =  -1581.76738035     A.U. after    7 cycles
 SCF Done:  E(RwB97XD) =  -1581.76738043     A.U. after    6 cycles
 SCF Done:  E(RwB97XD) =  -1581.76738051     A.U. after    6 cycles
 Optimization completed.
    -- Stationary point found.

                         Standard orientation:
 ---------------------------------------------------------------------
 Center     Atomic      Atomic             Coordinates (Angstroms)
 Number     Number       Type             X           Y           Z
 ---------------------------------------------------------------------
      1          6           0       -0.645957    2.623242    0.533420
      2          6           0        0.694970    2.267196    0.510040
      3          6           0        1.619814    3.139105   -0.072261
      4          6           0        1.131595    4.326107   -0.624851
      5          7           0       -0.152006    4.683182   -0.613437
      6          6           0       -1.010802    3.841602   -0.035261
      7          6           0        3.062038    2.798854   -0.112399
      8          6           0        4.063565    3.765620   -0.167615
      9          6           0        5.373219    3.295311   -0.204379
     10          7           0        5.690200    2.008444   -0.179600
     11          6           0        4.647495    1.156575   -0.110300
     12          7           0        3.357494    1.493761   -0.080890
     13          7           0        5.014313   -0.161515   -0.066127
     14          6           0        4.250664   -1.335536    0.026191
     15          6           0        4.928518   -2.530068    0.346334
     16          6           0        4.178206   -3.697422    0.434346
     17          6           0        2.802426   -3.735115    0.227635
     18          6           0        2.154686   -2.544743   -0.091966
     19          6           0        2.877461   -1.355484   -0.201384
     20          7           0        0.770504   -2.446462   -0.335762
     21          6           0       -0.214464   -3.356301   -0.048008
     22          6           0       -1.598740   -2.862130   -0.360351
     23          6           0       -1.879820   -2.014480   -1.435228
     24          6           0       -3.176351   -1.563244   -1.648481
     25          6           0       -4.212854   -1.923703   -0.785820
     26          6           0       -3.931070   -2.812832    0.253822
     27          6           0       -2.641773   -3.285005    0.463054
     28          6           0       -5.602820   -1.326496   -0.939374
     29          7           0       -5.847108   -0.035410   -0.316378
     30          6           0       -5.334683    1.157021   -0.979406
     31          6           0       -3.956354    1.616687   -0.477118
     32          7           0       -3.884702    1.741397    0.978710
     33          6           0       -4.567948    2.914823    1.500366
     34          6           0       -4.317670    0.488597    1.600817
     35          6           0       -5.711336    0.035044    1.133125
     36          8           0       -0.017716   -4.453854    0.445880
     37          6           0        6.415756   -2.546277    0.592909
     38          1           0       -1.414977    1.997272    0.979229
     39          1           0        1.043808    1.335708    0.945685
     40          1           0        1.807720    5.016753   -1.125338
     41          1           0       -2.051790    4.157152   -0.024077
     42          1           0        3.849236    4.826694   -0.156631
     43          1           0        6.208552    3.991280   -0.249112
     44          1           0        6.017446   -0.269582   -0.059132
     45          1           0        4.689415   -4.623852    0.683333
     46          1           0        2.245224   -4.655697    0.324600
     47          1           0        2.374343   -0.429726   -0.445812
     48          1           0        0.454720   -1.522911   -0.593302
     49          1           0       -1.095454   -1.729613   -2.131905
     50          1           0       -3.385376   -0.913144   -2.495089
     51          1           0       -4.732700   -3.132799    0.915600
     52          1           0       -2.422012   -3.979808    1.267178
     53          1           0       -5.836621   -1.220795   -2.005255
     54          1           0       -6.333902   -2.033160   -0.525639
     55          1           0       -5.299325    0.976534   -2.059570
     56          1           0       -6.060288    1.968711   -0.820260
     57          1           0       -3.698086    2.581390   -0.929592
     58          1           0       -3.187884    0.897134   -0.781088
     59          1           0       -5.657668    2.938908    1.332696
     60          1           0       -4.143492    3.812995    1.039463
     61          1           0       -4.393877    2.979313    2.579479
     62          1           0       -4.308271    0.616462    2.689693
     63          1           0       -3.576472   -0.279390    1.351116
     64          1           0       -6.466554    0.738772    1.513044
     65          1           0       -5.950664   -0.943923    1.562553
     66          1           0        6.704718   -1.866746    1.404822
     67          1           0        6.987632   -2.259355   -0.300417
     68          1           0        6.746827   -3.549207    0.873928
 ---------------------------------------------------------------------

 The electronic state is 1-A.
 Alpha  occ. eigenvalues --  -19.24089 -14.49150 -14.49017 -14.45638 -14.45495
 Alpha  occ. eigenvalues --  -14.45254 -14.44752 -14.44486 -10.41410 -10.40878
 Alpha  occ. eigenvalues --  -10.36990 -10.35812 -10.34772 -10.34358 -10.34178
 Alpha  occ. eigenvalues --  -10.33795 -10.33270 -10.32415 -10.32329 -10.32275
 Alpha  occ. eigenvalues --  -10.32159 -10.32061 -10.32003 -10.31811 -10.31773
 Alpha  occ. eigenvalues --  -10.31762 -10.31723 -10.31418 -10.31321 -10.31205
 Alpha  occ. eigenvalues --  -10.31199 -10.30807 -10.30492 -10.30094 -10.29696
 Alpha  occ. eigenvalues --  -10.29148 -10.28553  -1.14248  -1.11908  -1.05088
 Alpha  occ. eigenvalues --   -1.04928  -1.04514  -1.03924  -1.00692  -1.00240
 Alpha  occ. eigenvalues --   -0.97149  -0.94799  -0.91759  -0.89379  -0.88646
 Alpha  occ. eigenvalues --   -0.86819  -0.86443  -0.86243  -0.85685  -0.83680
 Alpha  occ. eigenvalues --   -0.82874  -0.80131  -0.78570  -0.77406  -0.76021
 Alpha  occ. eigenvalues --   -0.74344  -0.73636  -0.72815  -0.71793  -0.71617
 Alpha  occ. eigenvalues --   -0.71220  -0.69819  -0.68525  -0.66744  -0.64958
 Alpha  occ. eigenvalues --   -0.64627  -0.63170  -0.62535  -0.61081  -0.60116
 Alpha  occ. eigenvalues --   -0.58973  -0.58182  -0.57565  -0.56650  -0.56349
 Alpha  occ. eigenvalues --   -0.55926  -0.55793  -0.55164  -0.54888  -0.54641
 Alpha  occ. eigenvalues --   -0.54423  -0.54138  -0.53874  -0.53287  -0.52595
 Alpha  occ. eigenvalues --   -0.51884  -0.51660  -0.51425  -0.50999  -0.50800
 Alpha  occ. eigenvalues --   -0.50409  -0.50019  -0.49366  -0.49204  -0.48843
 Alpha  occ. eigenvalues --   -0.47703  -0.47540  -0.47287  -0.47125  -0.46416
 Alpha  occ. eigenvalues --   -0.46063  -0.45850  -0.45151  -0.44692  -0.44090
 Alpha  occ. eigenvalues --   -0.43558  -0.43276  -0.42949  -0.42536  -0.41957
 Alpha  occ. eigenvalues --   -0.41847  -0.41095  -0.39714  -0.38105  -0.36396
 Alpha  occ. eigenvalues --   -0.35067  -0.34335  -0.34262  -0.34043  -0.33635
 Alpha  occ. eigenvalues --   -0.32954  -0.32672  -0.31975  -0.29393  -0.27113
 Alpha  occ. eigenvalues --   -0.26187
 Alpha virt. eigenvalues --    0.00536   0.02564   0.04139   0.04952   0.05308
 Alpha virt. eigenvalues --    0.07730   0.08196   0.10644   0.13795   0.14270
 Alpha virt. eigenvalues --    0.15592   0.15749   0.16868   0.17975   0.18382

 Mulliken atomic charges:
              1
     1  C   -0.194951
     2  C   -0.155722
     3  C    0.040392
     4  C   -0.013277
     5  N   -0.423387
     6  C    0.014929
     7  C    0.286058
     8  C   -0.251852
     9  C    0.048520
    10  N   -0.497100
    11  C    0.713269
    12  N   -0.566522
    13  N   -0.806677
    14  C    0.298500
    15  C    0.117520
    16  C   -0.239662
    17  C   -0.190039
    18  C    0.353523
    19  C   -0.272328
    20  N   -0.760392
    21  C    0.589929
    22  C    0.015715
    23  C   -0.211581
    24  C   -0.218108
    25  C    0.154723
    26  C   -0.222990
    27  C   -0.177683
    28  C   -0.264407
    29  N   -0.380973
    30  C   -0.184920
    31  C   -0.181224
    32  N   -0.395907
    33  C   -0.355907
    34  C   -0.183099
    35  C   -0.188875
    36  O   -0.510948
    37  C   -0.608926
    38  H    0.212573
    39  H    0.199640
    40  H    0.174223
    41  H    0.169145
    42  H    0.186398
    43  H    0.188603
    44  H    0.369499
    45  H    0.161345
    46  H    0.213293
    47  H    0.199526
    48  H    0.357514
    49  H    0.179600
    50  H    0.167823
    51  H    0.167897
    52  H    0.201576
    53  H    0.172887
    54  H    0.172661
    55  H    0.156836
    56  H    0.163383
    57  H    0.155232
    58  H    0.161742
    59  H    0.144100
    60  H    0.168514
    61  H    0.173495
    62  H    0.158527
    63  H    0.171174
    64  H    0.163477
    65  H    0.159041
    66  H    0.184925
    67  H    0.179370
    68  H    0.190362
 Sum of Mulliken atomic charges =   0.00000

 Dipole moment (field-independent basis, Debye):
    X=             -0.9190    Y=              2.1811    Z=              0.0463  Tot=              2.3673
 Quadrupole moment (field-independent basis, Debye-Ang):
   XX=           -188.4985   YY=           -231.2263   ZZ=           -212.7083
   XY=              2.9885   XZ=             -1.9331   YZ=              1.0379

 Normal termination of Gaussian 09 at Wed Mar 25 14:53:10 2020.
