                               Psi4 1.3.2 release

  ==> Input File <==

--------------------------------------------------------------------------
molecule {
0 1
 C    1.201067    4.498465   -3.357575
 C    2.494782    4.197738   -2.912040
 C    2.742278    2.991512   -2.226402
 C    1.624679    2.137609   -2.058451
 N    0.381157    2.411834   -2.471903
 C    0.180098    3.575368   -3.107672
 C    4.095033    2.601376   -1.684429
 C    5.274514    3.344774   -1.863946
 C    6.426171    2.820332   -1.267613
 N    6.455622    1.694491   -0.559526
 C    5.279022    1.046800   -0.434520
 N    4.128158    1.461983   -0.966239
 N    5.338620   -0.116365    0.310937
 C    4.387199   -1.144521    0.642991
 C    4.863264   -2.397237    1.140446
 C    3.906160   -3.376353    1.455318
 C    2.526870   -3.198056    1.302681
 C    2.078782   -1.967802    0.815464
 C    3.005411   -0.964093    0.499305
 N    0.723870   -1.636282    0.574417
 C   -0.033974   -1.824563   -0.555986
 C   -1.377305   -1.129246   -0.635865
 C   -1.619691    0.148842   -0.107004
 C   -2.896184    0.711790   -0.178551
 C   -3.966711    0.034688   -0.793144
 C   -3.701666   -1.236005   -1.339954
 C   -2.426630   -1.803004   -1.281854
 C   -5.377075    0.627500   -0.812802
 N   -6.254527    0.450338    0.356983
 C   -6.001842    1.243555    1.581277
 C   -5.108177    0.540216    2.635927
 N   -5.587179   -0.810217    3.019223
 C   -6.655289   -0.868640    4.023818
 C   -5.793043   -1.611327    1.787460
 C   -6.682640   -0.920201    0.721071
 O    0.340278   -2.540999   -1.468372
 C    6.337618   -2.714014    1.331312
 H    0.988036    5.423732   -3.884645
 H    3.285547    4.920420   -3.097954
 H    1.738514    1.173499   -1.574250
 H   -0.842416    3.761815   -3.432392
 H    5.338996    4.269150   -2.424428
 H    7.393146    3.315721   -1.349146
 H    6.293725   -0.275237    0.593835
 H    4.239590   -4.339407    1.839861
 H    1.821875   -3.989718    1.523876
 H    2.644880   -0.016564    0.133532
 H    0.293258   -1.124235    1.331517
 H   -0.802448    0.700496    0.350560
 H   -3.059037    1.696558    0.258894
 H   -4.505804   -1.803442   -1.807406
 H   -2.232886   -2.781790   -1.713690
 H   -5.294389    1.709592   -0.986437
 H   -5.915551    0.204023   -1.672673
 H   -5.527030    2.382145    1.278155
 H   -7.317148    1.494855    2.208191
 H   -5.030824    1.285115    3.716543
 H   -3.983683    0.416229    2.215464
 H   -7.580928   -0.425802    3.638732
 H   -6.353424   -0.327433    4.927998
 H   -6.851822   -1.909350    4.306260
 H   -6.291908   -2.762255    2.110361
 H   -4.490113   -1.852848    1.227330
 H   -8.040511   -0.812470    1.280491
 H   -6.774353   -1.587598   -0.239259
 H    6.824937   -2.044737    2.054778
 H    6.883747   -2.623066    0.388018
 H    6.507711   -3.731920    1.691735
}
memory 20GB
set_num_threads(6)
psi4_io.set_default_path("/scratch/bdw2292")
set freeze_core True
E, wfn = energy('mp2/6-311+G*',return_wfn=True)
oeprop(wfn,"WIBERG_LOWDIN_INDICES")
clean()
--------------------------------------------------------------------------

    Molecular point group: c1

    Geometry (in Angstrom), charge = 0, multiplicity = 1:

       Center              X                  Y                   Z               Mass
    ------------   -----------------  -----------------  -----------------  -----------------
         C            1.001325326501     4.351518415870    -3.185353825707    12.000000000000
         C            2.295040326501     4.050791415870    -2.739818825707    12.000000000000
         C            2.542536326501     2.844565415870    -2.054180825707    12.000000000000
         C            1.424937326501     1.990662415870    -1.886229825707    12.000000000000
         N            0.181415326501     2.264887415870    -2.299681825707    14.003074004430
         C           -0.019643673499     3.428421415870    -2.935450825707    12.000000000000
         C            3.895291326501     2.454429415870    -1.512207825707    12.000000000000
         C            5.074772326501     3.197827415870    -1.691724825707    12.000000000000
         C            6.226429326501     2.673385415870    -1.095391825707    12.000000000000
         N            6.255880326501     1.547544415870    -0.387304825707    14.003074004430
         C            5.079280326501     0.899853415870    -0.262298825707    12.000000000000
         N            3.928416326501     1.315036415870    -0.794017825707    14.003074004430
         N            5.138878326501    -0.263311584130     0.483158174293    14.003074004430
         C            4.187457326501    -1.291467584130     0.815212174293    12.000000000000
         C            4.663522326501    -2.544183584130     1.312667174293    12.000000000000
         C            3.706418326501    -3.523299584130     1.627539174293    12.000000000000
         C            2.327128326501    -3.345002584130     1.474902174293    12.000000000000
         C            1.879040326501    -2.114748584130     0.987685174293    12.000000000000
         C            2.805669326501    -1.111039584130     0.671526174293    12.000000000000
         N            0.524128326501    -1.783228584130     0.746638174293    14.003074004430
         C           -0.233715673499    -1.971509584130    -0.383764825707    12.000000000000
         C           -1.577046673499    -1.276192584130    -0.463643825707    12.000000000000
         C           -1.819432673499     0.001895415870     0.065217174293    12.000000000000
         C           -3.095925673499     0.564843415870    -0.006329825707    12.000000000000
         C           -4.166452673499    -0.112258584130    -0.620922825707    12.000000000000
         C           -3.901407673499    -1.382951584130    -1.167732825707    12.000000000000
         C           -2.626371673499    -1.949950584130    -1.109632825707    12.000000000000
         C           -5.576816673499     0.480553415870    -0.640580825707    12.000000000000
         N           -6.454268673499     0.303391415870     0.529204174293    14.003074004430
         C           -6.201583673499     1.096608415870     1.753498174293    12.000000000000
         C           -5.307918673499     0.393269415870     2.808148174293    12.000000000000
         N           -5.786920673499    -0.957163584130     3.191444174293    14.003074004430
         C           -6.855030673499    -1.015586584130     4.196039174293    12.000000000000
         C           -5.992784673499    -1.758273584130     1.959681174293    12.000000000000
         C           -6.882381673499    -1.067147584130     0.893292174293    12.000000000000
         O            0.140536326501    -2.687945584130    -1.296150825707    15.994914619570
         C            6.137876326501    -2.860960584130     1.503533174293    12.000000000000
         H            0.788294326501     5.276785415870    -3.712423825707     1.007825032230
         H            3.085805326501     4.773473415870    -2.925732825707     1.007825032230
         H            1.538772326501     1.026552415870    -1.402028825707     1.007825032230
         H           -1.042157673499     3.614868415870    -3.260170825707     1.007825032230
         H            5.139254326501     4.122203415870    -2.252206825707     1.007825032230
         H            7.193404326501     3.168774415870    -1.176924825707     1.007825032230
         H            6.093983326501    -0.422183584130     0.766056174293     1.007825032230
         H            4.039848326501    -4.486353584130     2.012082174293     1.007825032230
         H            1.622133326501    -4.136664584130     1.696097174293     1.007825032230
         H            2.445138326501    -0.163510584130     0.305753174293     1.007825032230
         H            0.093516326501    -1.271181584130     1.503738174293     1.007825032230
         H           -1.002189673499     0.553549415870     0.522781174293     1.007825032230
         H           -3.258778673499     1.549611415870     0.431115174293     1.007825032230
         H           -4.705545673499    -1.950388584130    -1.635184825707     1.007825032230
         H           -2.432627673499    -2.928736584130    -1.541468825707     1.007825032230
         H           -5.494130673499     1.562645415870    -0.814215825707     1.007825032230
         H           -6.115292673499     0.057076415870    -1.500451825707     1.007825032230
         H           -5.726771673499     2.235198415870     1.450376174293     1.007825032230
         H           -7.516889673499     1.347908415870     2.380412174293     1.007825032230
         H           -5.230565673499     1.138168415870     3.888764174293     1.007825032230
         H           -4.183424673499     0.269282415870     2.387685174293     1.007825032230
         H           -7.780669673499    -0.572748584130     3.810953174293     1.007825032230
         H           -6.553165673499    -0.474379584130     5.100219174293     1.007825032230
         H           -7.051563673499    -2.056296584130     4.478481174293     1.007825032230
         H           -6.491649673499    -2.909201584130     2.282582174293     1.007825032230
         H           -4.689854673499    -1.999794584130     1.399551174293     1.007825032230
         H           -8.240252673499    -0.959416584130     1.452712174293     1.007825032230
         H           -6.974094673499    -1.734544584130    -0.067037825707     1.007825032230
         H            6.625195326501    -2.191683584130     2.226999174293     1.007825032230
         H            6.684005326501    -2.770012584130     0.560239174293     1.007825032230
         H            6.307969326501    -3.878866584130     1.863956174293     1.007825032230

  Charge       = 0
  Multiplicity = 1
  Basis Set: 6-311+G*
    Blend: 6-311+G*
  Basis Set: (6-311+G* AUX)
    Blend: HEAVY-AUG-CC-PVTZ-JKFIT

    Orbital Energies [Eh]
    ---------------------

    Doubly Occupied:

       1A    -20.512935     2A    -15.601532     3A    -15.586679
       4A    -15.574676     5A    -15.569010     6A    -15.568880
       7A    -15.564675     8A    -15.554465     9A    -11.370820
      10A    -11.357261    11A    -11.329758    12A    -11.318467
      13A    -11.311289    14A    -11.309923    15A    -11.309478
      16A    -11.299998    17A    -11.293840    18A    -11.292035
      19A    -11.290152    20A    -11.281867    21A    -11.280095
      22A    -11.276472    23A    -11.271647    24A    -11.257482
      25A    -11.256022    26A    -11.254578    27A    -11.254265
      28A    -11.253096    29A    -11.247850    30A    -11.247102
      31A    -11.245361    32A    -11.245101    33A    -11.243402
      34A    -11.242442    35A    -11.237912    36A    -11.236251
      37A    -11.232257    38A     -1.379776    39A     -1.341549
      40A     -1.268368    41A     -1.247563    42A     -1.244800
      43A     -1.238502    44A     -1.204943    45A     -1.198966
      46A     -1.159884    47A     -1.140576    48A     -1.108836
      49A     -1.070212    50A     -1.057405    51A     -1.042037
      52A     -1.037488    53A     -1.022208    54A     -1.009631
      55A     -0.991367    56A     -0.976309    57A     -0.946808
      58A     -0.927448    59A     -0.920147    60A     -0.897896
      61A     -0.866129    62A     -0.863553    63A     -0.851546
      64A     -0.839878    65A     -0.832355    66A     -0.822864
      67A     -0.821947    68A     -0.804024    69A     -0.779631
      70A     -0.748561    71A     -0.741631    72A     -0.726881
      73A     -0.719593    74A     -0.702743    75A     -0.695207
      76A     -0.681435    77A     -0.668869    78A     -0.663470
      79A     -0.656942    80A     -0.654410    81A     -0.652371
      82A     -0.639122    83A     -0.638219    84A     -0.628019
      85A     -0.625772    86A     -0.616574    87A     -0.614321
      88A     -0.608435    89A     -0.603481    90A     -0.601405
      91A     -0.594883    92A     -0.592113    93A     -0.588236
      94A     -0.584677    95A     -0.581680    96A     -0.581178
      97A     -0.577661    98A     -0.569163    99A     -0.563251
     100A     -0.553066   101A     -0.546352   102A     -0.536595
     103A     -0.530091   104A     -0.525448   105A     -0.522788
     106A     -0.519047   107A     -0.517017   108A     -0.510891
     109A     -0.508918   110A     -0.502958   111A     -0.499014
     112A     -0.493426   113A     -0.483586   114A     -0.469960
     115A     -0.453598   116A     -0.445014   117A     -0.437193
     118A     -0.431547   119A     -0.423659   120A     -0.412092
     121A     -0.408753   122A     -0.398699   123A     -0.393144
     124A     -0.381931   125A     -0.370836   126A     -0.342933
     127A     -0.339708   128A     -0.339468   129A     -0.332145
     130A     -0.312754   131A     -0.296077

  @DF-RHF Final Energy: -1572.30732438796440

   => Energetics <=

    Nuclear Repulsion Energy =           3722.3373401910012035
    One-Electron Energy =               -9543.5838633170278626
    Two-Electron Energy =                4248.9391987380622595
    Total Energy =                      -1572.3073243879643996

  Dipole Moment: [D]
     X:     1.5652      Y:     4.6112      Z:     1.0205     Total:     4.9753

  Basis Set: (6-311+G* AUX)
    Blend: HEAVY-AUG-CC-PVTZ-RI
	 Reference Energy          =   -1572.3073243879643996 [Eh]
	 Singles Energy            =      -0.0000000000000000 [Eh]
	 Same-Spin Energy          =      -1.4486858600477814 [Eh]
	 Opposite-Spin Energy      =      -3.8926430459260608 [Eh]
	 Correlation Energy        =      -5.3413289059738425 [Eh]
	 Total Energy              =   -1577.6486532939381959 [Eh]

	 ================> DF-SCS-MP2 Energies <==================
	-----------------------------------------------------------
	 SCS Same-Spin Scale       =       0.3333333333333333 [-]
	 SCS Opposite-Spin Scale   =       1.2000000000000000 [-]
	 SCS Same-Spin Energy      =      -0.4828952866825938 [Eh]
	 SCS Opposite-Spin Energy  =      -4.6711716551112730 [Eh]
	 SCS Correlation Energy    =      -5.1540669417938672 [Eh]
	 SCS Total Energy          =   -1577.4613913297582712 [Eh]
	-----------------------------------------------------------

*** Psi4 exiting successfully. Buy a developer a beer!
