                               Psi4 1.3.2 release

  ==> Input File <==

--------------------------------------------------------------------------
molecule {
0 1
 C   -0.241593    4.452603   -0.384987
 C    1.110677    4.317856   -0.042731
 C    1.719749    3.047441   -0.068289
 C    0.886949    1.975808   -0.477109
 N   -0.404273    2.082955   -0.815552
 C   -0.952228    3.306655   -0.759285
 C    3.167830    2.809613    0.284914
 C    4.111429    3.805165    0.585097
 C    5.410900    3.352171    0.839468
 N    5.778756    2.074021    0.828705
 C    4.801234    1.183691    0.558300
 N    3.534393    1.513385    0.291384
 N    5.186642   -0.149083    0.572546
 C    4.498170   -1.381308    0.275112
 C    5.253166   -2.568769    0.032702
 C    4.531962   -3.735692   -0.273422
 C    3.134968   -3.794978   -0.345227
 C    2.408563   -2.630108   -0.077621
 C    3.100629   -1.445619    0.220019
 N    0.983120   -2.502299   -0.103782
 C    0.001386   -3.370332   -0.518698
 C   -1.402146   -2.814352   -0.662100
 C   -1.671368   -1.508653   -1.104067
 C   -2.986322   -1.046629   -1.187309
 C   -4.081867   -1.865912   -0.859053
 C   -3.793893   -3.178665   -0.432342
 C   -2.482594   -3.651594   -0.342383
 C   -5.529936   -1.368015   -0.906241
 N   -5.993030   -0.158993   -0.199438
 C   -5.660598    1.196101   -0.698304
 C   -4.460876    1.906341   -0.016905
 N   -4.536922    1.935232    1.461177
 C   -5.380833    2.971889    2.067503
 C   -4.741646    0.548938    1.946565
 C   -5.941799   -0.169877    1.281135
 O    0.223076   -4.548728   -0.748773
 C    6.771226   -2.615724    0.065921
 H   -0.733738    5.420335   -0.362518
 H    1.657575    5.209193    0.255023
 H    1.298109    0.975768   -0.562290
 H   -2.002775    3.371590   -1.035327
 H    3.893538    4.866061    0.594433
 H    6.206461    4.063118    1.060866
 H    6.177331   -0.211870    0.753223
 H    5.074846   -4.657881   -0.477948
 H    2.618178   -4.714452   -0.591936
 H    2.547598   -0.543216    0.424878
 H    0.644950   -1.588767    0.164914
 H   -0.849397   -0.851463   -1.378914
 H   -3.146526   -0.041728   -1.569224
 H   -4.603203   -3.854954   -0.157623
 H   -2.275145   -4.666944   -0.013634
 H   -5.777597   -1.216404   -1.967472
 H   -6.168723   -2.177370   -0.522448
 H   -5.598259    1.204744   -1.760830
 H   -6.927140    2.117895   -0.316237
 H   -4.477989    3.347960   -0.526682
 H   -3.591338    1.516509   -0.263009
 H   -6.436030    2.819281    1.814777
 H   -5.072526    3.963376    1.717093
 H   -5.274713    2.953097    3.158237
 H   -4.782697    0.538041    2.966719
 H   -3.459570   -0.274428    1.516109
 H   -7.214160    0.533013    1.792966
 H   -5.956127   -1.576021    1.778750
 H    7.157397   -2.378370    1.067275
 H    7.211518   -1.894952   -0.637667
 H    7.176083   -3.601597   -0.201341
}
memory 20GB
set_num_threads(6)
psi4_io.set_default_path("/scratch/bdw2292")
set freeze_core True
E, wfn = energy('mp2/6-311++G**',return_wfn=True)
oeprop(wfn,"WIBERG_LOWDIN_INDICES")
clean()
--------------------------------------------------------------------------

    Molecular point group: c1

    Geometry (in Angstrom), charge = 0, multiplicity = 1:

       Center              X                  Y                   Z               Mass
    ------------   -----------------  -----------------  -----------------  -----------------
         C           -0.349644778937     4.501573086558    -0.407897803070    12.000000000000
         C            1.002625221063     4.366826086558    -0.065641803070    12.000000000000
         C            1.611697221063     3.096411086558    -0.091199803070    12.000000000000
         C            0.778897221063     2.024778086558    -0.500019803070    12.000000000000
         N           -0.512324778937     2.131925086558    -0.838462803070    14.003074004430
         C           -1.060279778937     3.355625086558    -0.782195803070    12.000000000000
         C            3.059778221063     2.858583086558     0.262003196930    12.000000000000
         C            4.003377221063     3.854135086558     0.562186196930    12.000000000000
         C            5.302848221063     3.401141086558     0.816557196930    12.000000000000
         N            5.670704221063     2.122991086558     0.805794196930    14.003074004430
         C            4.693182221063     1.232661086558     0.535389196930    12.000000000000
         N            3.426341221063     1.562355086558     0.268473196930    14.003074004430
         N            5.078590221063    -0.100112913442     0.549635196930    14.003074004430
         C            4.390118221063    -1.332337913442     0.252201196930    12.000000000000
         C            5.145114221063    -2.519798913442     0.009791196930    12.000000000000
         C            4.423910221063    -3.686721913442    -0.296332803070    12.000000000000
         C            3.026916221063    -3.746007913442    -0.368137803070    12.000000000000
         C            2.300511221063    -2.581137913442    -0.100531803070    12.000000000000
         C            2.992577221063    -1.396648913442     0.197108196930    12.000000000000
         N            0.875068221063    -2.453328913442    -0.126692803070    14.003074004430
         C           -0.106665778937    -3.321361913442    -0.541608803070    12.000000000000
         C           -1.510197778937    -2.765381913442    -0.685010803070    12.000000000000
         C           -1.779419778937    -1.459682913442    -1.126977803070    12.000000000000
         C           -3.094373778937    -0.997658913442    -1.210219803070    12.000000000000
         C           -4.189918778937    -1.816941913442    -0.881963803070    12.000000000000
         C           -3.901944778937    -3.129694913442    -0.455252803070    12.000000000000
         C           -2.590645778937    -3.602623913442    -0.365293803070    12.000000000000
         C           -5.637987778937    -1.319044913442    -0.929151803070    12.000000000000
         N           -6.101081778937    -0.110022913442    -0.222348803070    14.003074004430
         C           -5.768649778937     1.245071086558    -0.721214803070    12.000000000000
         C           -4.568927778937     1.955311086558    -0.039815803070    12.000000000000
         N           -4.644973778937     1.984202086558     1.438266196930    14.003074004430
         C           -5.488884778937     3.020859086558     2.044592196930    12.000000000000
         C           -4.849697778937     0.597908086558     1.923654196930    12.000000000000
         C           -6.049850778937    -0.120906913442     1.258224196930    12.000000000000
         O            0.115024221063    -4.499757913442    -0.771683803070    15.994914619570
         C            6.663174221063    -2.566753913442     0.043010196930    12.000000000000
         H           -0.841789778937     5.469305086558    -0.385428803070     1.007825032230
         H            1.549523221063     5.258163086558     0.232112196930     1.007825032230
         H            1.190057221063     1.024738086558    -0.585200803070     1.007825032230
         H           -2.110826778937     3.420560086558    -1.058237803070     1.007825032230
         H            3.785486221063     4.915031086558     0.571522196930     1.007825032230
         H            6.098409221063     4.112088086558     1.037955196930     1.007825032230
         H            6.069279221063    -0.162899913442     0.730312196930     1.007825032230
         H            4.966794221063    -4.608910913442    -0.500858803070     1.007825032230
         H            2.510126221063    -4.665481913442    -0.614846803070     1.007825032230
         H            2.439546221063    -0.494245913442     0.401967196930     1.007825032230
         H            0.536898221063    -1.539796913442     0.142003196930     1.007825032230
         H           -0.957448778937    -0.802492913442    -1.401824803070     1.007825032230
         H           -3.254577778937     0.007242086558    -1.592134803070     1.007825032230
         H           -4.711254778937    -3.805983913442    -0.180533803070     1.007825032230
         H           -2.383196778937    -4.617973913442    -0.036544803070     1.007825032230
         H           -5.885648778937    -1.167433913442    -1.990382803070     1.007825032230
         H           -6.276774778937    -2.128399913442    -0.545358803070     1.007825032230
         H           -5.706310778937     1.253714086558    -1.783740803070     1.007825032230
         H           -7.035191778937     2.166865086558    -0.339147803070     1.007825032230
         H           -4.586040778937     3.396930086558    -0.549592803070     1.007825032230
         H           -3.699389778937     1.565479086558    -0.285919803070     1.007825032230
         H           -6.544081778937     2.868251086558     1.791866196930     1.007825032230
         H           -5.180577778937     4.012346086558     1.694182196930     1.007825032230
         H           -5.382764778937     3.002067086558     3.135326196930     1.007825032230
         H           -4.890748778937     0.587011086558     2.943808196930     1.007825032230
         H           -3.567621778937    -0.225457913442     1.493198196930     1.007825032230
         H           -7.322211778937     0.581983086558     1.770055196930     1.007825032230
         H           -6.064178778937    -1.527050913442     1.755839196930     1.007825032230
         H            7.049345221063    -2.329399913442     1.044364196930     1.007825032230
         H            7.103466221063    -1.845981913442    -0.660577803070     1.007825032230
         H            7.068031221063    -3.552626913442    -0.224251803070     1.007825032230

  Charge       = 0
  Multiplicity = 1
  Basis Set: 6-311++G**
    Blend: 6-311++G**
  Basis Set: (6-311++G** AUX)
    Blend: AUG-CC-PVTZ-JKFIT

    Orbital Energies [Eh]
    ---------------------

    Doubly Occupied:

       1A    -20.521526     2A    -15.603359     3A    -15.601793
       4A    -15.584884     5A    -15.584140     6A    -15.573393
       7A    -15.568198     8A    -15.564000     9A    -11.374761
      10A    -11.364037    11A    -11.346057    12A    -11.333416
      13A    -11.316506    14A    -11.313286    15A    -11.305859
      16A    -11.301193    17A    -11.299236    18A    -11.298823
      19A    -11.297462    20A    -11.292651    21A    -11.287034
      22A    -11.283423    23A    -11.278080    24A    -11.262353
      25A    -11.261131    26A    -11.257016    27A    -11.254292
      28A    -11.251798    29A    -11.251394    30A    -11.250674
      31A    -11.246972    32A    -11.246920    33A    -11.246667
      34A    -11.239801    35A    -11.235226    36A    -11.230359
      37A    -11.224723    38A     -1.386937    39A     -1.343678
      40A     -1.276062    41A     -1.254841    42A     -1.251211
      43A     -1.240894    44A     -1.210080    45A     -1.208830
      46A     -1.163395    47A     -1.139359    48A     -1.113832
      49A     -1.073934    50A     -1.061292    51A     -1.046676
      52A     -1.038221    53A     -1.024825    54A     -1.013244
      55A     -1.007476    56A     -0.985141    57A     -0.950528
      58A     -0.933894    59A     -0.924793    60A     -0.899818
      61A     -0.872414    62A     -0.870813    63A     -0.857313
      64A     -0.854773    65A     -0.840558    66A     -0.837912
      67A     -0.826294    68A     -0.809565    69A     -0.779018
      70A     -0.753066    71A     -0.738728    72A     -0.733561
      73A     -0.730046    74A     -0.719963    75A     -0.697640
      76A     -0.681873    77A     -0.675341    78A     -0.666708
      79A     -0.657290    80A     -0.654654    81A     -0.651257
      82A     -0.649585    83A     -0.638099    84A     -0.634616
      85A     -0.630306    86A     -0.625222    87A     -0.620168
      88A     -0.616512    89A     -0.611513    90A     -0.606191
      91A     -0.601789    92A     -0.599630    93A     -0.595714
      94A     -0.591349    95A     -0.590627    96A     -0.583500
      97A     -0.580976    98A     -0.579073    99A     -0.571483
     100A     -0.559190   101A     -0.547963   102A     -0.543471
     103A     -0.542259   104A     -0.535589   105A     -0.526929
     106A     -0.523031   107A     -0.513501   108A     -0.508914
     109A     -0.505757   110A     -0.497261   111A     -0.495470
     112A     -0.487008   113A     -0.483979   114A     -0.480811
     115A     -0.460339   116A     -0.450910   117A     -0.441434
     118A     -0.428314   119A     -0.425814   120A     -0.420738
     121A     -0.413583   122A     -0.399074   123A     -0.398370
     124A     -0.382760   125A     -0.372354   126A     -0.345995
     127A     -0.344625   128A     -0.344110   129A     -0.319101
     130A     -0.313913   131A     -0.289922

  @DF-RHF Final Energy: -1572.24402606979584

   => Energetics <=

    Nuclear Repulsion Energy =           3777.0676673938828571
    One-Electron Energy =               -9651.7453292497248185
    Two-Electron Energy =                4302.4336357860456701
    Total Energy =                      -1572.2440260697958365

  Dipole Moment: [D]
     X:     0.6106      Y:     6.3634      Z:     0.9255     Total:     6.4593

  Basis Set: (6-311++G** AUX)
    Blend: AUG-CC-PVTZ-RI
	 Reference Energy          =   -1572.2440260697958365 [Eh]
	 Singles Energy            =      -0.0000000000000000 [Eh]
	 Same-Spin Energy          =      -1.4719609733793280 [Eh]
	 Opposite-Spin Energy      =      -4.0525548007307126 [Eh]
	 Correlation Energy        =      -5.5245157741100410 [Eh]
	 Total Energy              =   -1577.7685418439059504 [Eh]

	 ================> DF-SCS-MP2 Energies <==================
	-----------------------------------------------------------
	 SCS Same-Spin Scale       =       0.3333333333333333 [-]
	 SCS Opposite-Spin Scale   =       1.2000000000000000 [-]
	 SCS Same-Spin Energy      =      -0.4906536577931093 [Eh]
	 SCS Opposite-Spin Energy  =      -4.8630657608768546 [Eh]
	 SCS Correlation Energy    =      -5.3537194186699644 [Eh]
	 SCS Total Energy          =   -1577.5977454884657618 [Eh]
	-----------------------------------------------------------

*** Psi4 exiting successfully. Buy a developer a beer!
