 Gaussian 09, Revision A.02,
 Gaussian 09:  EM64L-G09RevA.02 11-Jun-2009

 --------------------------------------------------
 #P opt=(,maxcycle=400) wB97XD/6-31G* MaxDisk=100GB
 --------------------------------------------------

 --------------------------------------------------------------
 MOLECULE0 Rotatable Bond Optimization on node37.bme.utexas.edu
 --------------------------------------------------------------
 Symbolic Z-matrix:
 Charge =  0 Multiplicity = 1

 SCF Done:  E(RwB97XD) =  -1581.55550090     A.U. after   16 cycles
 SCF Done:  E(RwB97XD) =  -1581.62061319     A.U. after   13 cycles
 SCF Done:  E(RwB97XD) =  -1581.71422418     A.U. after   14 cycles
 SCF Done:  E(RwB97XD) =  -1581.74684163     A.U. after   15 cycles
 SCF Done:  E(RwB97XD) =  -1581.69839954     A.U. after   17 cycles
 SCF Done:  E(RwB97XD) =  -1581.75389038     A.U. after   15 cycles
 SCF Done:  E(RwB97XD) =  -1581.75735357     A.U. after   14 cycles
 SCF Done:  E(RwB97XD) =  -1581.75708262     A.U. after   14 cycles
 SCF Done:  E(RwB97XD) =  -1581.75803492     A.U. after   14 cycles
 SCF Done:  E(RwB97XD) =  -1581.75909636     A.U. after   14 cycles
 SCF Done:  E(RwB97XD) =  -1581.76128354     A.U. after   13 cycles
 SCF Done:  E(RwB97XD) =  -1581.76130165     A.U. after   12 cycles
 SCF Done:  E(RwB97XD) =  -1581.76131345     A.U. after   12 cycles
 SCF Done:  E(RwB97XD) =  -1581.76130935     A.U. after   12 cycles
 SCF Done:  E(RwB97XD) =  -1581.76131817     A.U. after   12 cycles
 SCF Done:  E(RwB97XD) =  -1581.76132197     A.U. after   10 cycles
 SCF Done:  E(RwB97XD) =  -1581.76132272     A.U. after   10 cycles
 SCF Done:  E(RwB97XD) =  -1581.76132261     A.U. after   10 cycles
 SCF Done:  E(RwB97XD) =  -1581.76132326     A.U. after    8 cycles
 SCF Done:  E(RwB97XD) =  -1581.76132315     A.U. after    7 cycles
 Optimization completed.
    -- Stationary point found.

                         Standard orientation:
 ---------------------------------------------------------------------
 Center     Atomic      Atomic             Coordinates (Angstroms)
 Number     Number       Type             X           Y           Z
 ---------------------------------------------------------------------
      1          6           0       -0.088989    4.463370   -1.500901
      2          6           0       -1.418407    4.253864   -1.155886
      3          6           0       -1.768372    3.082007   -0.486178
      4          6           0       -0.739388    2.177363   -0.193751
      5          7           0        0.536101    2.357773   -0.529521
      6          6           0        0.845445    3.486337   -1.173959
      7          6           0       -3.168864    2.753076   -0.119101
      8          6           0       -4.157127    3.711712    0.084027
      9          6           0       -5.425411    3.226852    0.400781
     10          7           0       -5.713385    1.938488    0.517745
     11          6           0       -4.681208    1.093361    0.316440
     12          7           0       -3.434616    1.449304    0.004068
     13          7           0       -5.001501   -0.229783    0.450035
     14          6           0       -4.212817   -1.388264    0.333939
     15          6           0       -4.826800   -2.635602    0.572865
     16          6           0       -4.038803   -3.777238    0.458760
     17          6           0       -2.683981   -3.745298    0.133698
     18          6           0       -2.100579   -2.502523   -0.092773
     19          6           0       -2.866236   -1.339801   -0.005563
     20          7           0       -0.747089   -2.291286   -0.407088
     21          6           0        0.272317   -3.192708   -0.564008
     22          6           0        1.594405   -2.538161   -0.855549
     23          6           0        2.754538   -3.187876   -0.434478
     24          6           0        3.994534   -2.585776   -0.608049
     25          6           0        4.108182   -1.329438   -1.208514
     26          6           0        2.949141   -0.717609   -1.686257
     27          6           0        1.705322   -1.306714   -1.508501
     28          6           0        5.450172   -0.619614   -1.296588
     29          7           0        5.793212    0.304565   -0.228395
     30          6           0        6.002508   -0.268872    1.096464
     31          6           0        4.749104   -0.241887    1.986918
     32          7           0        4.146172    1.084526    2.082853
     33          6           0        4.892309    2.008340    2.917747
     34          6           0        3.858732    1.594446    0.744211
     35          6           0        5.090428    1.583202   -0.178445
     36          8           0        0.148095   -4.400723   -0.446692
     37          6           0       -6.285131   -2.735403    0.942761
     38          1           0        0.216885    5.361098   -2.027417
     39          1           0       -2.175608    4.982951   -1.429552
     40          1           0       -0.971465    1.267011    0.352114
     41          1           0        1.892919    3.611781   -1.439716
     42          1           0       -3.963257    4.775349    0.023181
     43          1           0       -6.250086    3.915910    0.572016
     44          1           0       -5.973799   -0.361199    0.685636
     45          1           0       -4.503869   -4.743258    0.638338
     46          1           0       -2.096071   -4.649917    0.064804
     47          1           0       -2.413776   -0.381454   -0.208030
     48          1           0       -0.473340   -1.320476   -0.406634
     49          1           0        2.663330   -4.159857    0.039497
     50          1           0        4.890706   -3.091522   -0.255605
     51          1           0        3.015577    0.244554   -2.188049
     52          1           0        0.828481   -0.803105   -1.906308
     53          1           0        6.245459   -1.374548   -1.340697
     54          1           0        5.496658   -0.059610   -2.238781
     55          1           0        6.366873   -1.296282    0.983216
     56          1           0        6.807061    0.297249    1.589261
     57          1           0        4.998574   -0.590884    2.996517
     58          1           0        3.991982   -0.922871    1.580818
     59          1           0        5.905491    2.263982    2.559706
     60          1           0        4.995397    1.579431    3.920674
     61          1           0        4.328443    2.943226    3.008990
     62          1           0        3.466288    2.614865    0.833075
     63          1           0        3.056783    0.983439    0.317228
     64          1           0        5.805782    2.343385    0.170360
     65          1           0        4.804169    1.867011   -1.198235
     66          1           0       -6.940615   -2.330252    0.160219
     67          1           0       -6.510995   -2.202679    1.876176
     68          1           0       -6.571136   -3.779532    1.092206
 ---------------------------------------------------------------------

 The electronic state is 1-A.
 Alpha  occ. eigenvalues --  -19.23434 -14.49326 -14.48440 -14.46515 -14.46103
 Alpha  occ. eigenvalues --  -14.45825 -14.43396 -14.42641 -10.41800 -10.40195
 Alpha  occ. eigenvalues --  -10.37605 -10.36327 -10.35190 -10.35009 -10.34670
 Alpha  occ. eigenvalues --  -10.34056 -10.34003 -10.33565 -10.32779 -10.32328
 Alpha  occ. eigenvalues --  -10.31843 -10.31122 -10.31072 -10.31024 -10.30956
 Alpha  occ. eigenvalues --  -10.30790 -10.30405 -10.30358 -10.30329 -10.30274
 Alpha  occ. eigenvalues --  -10.30268 -10.30220 -10.30038 -10.29943 -10.29544
 Alpha  occ. eigenvalues --  -10.28641 -10.28329  -1.13539  -1.12294  -1.06207
 Alpha  occ. eigenvalues --   -1.04590  -1.03694  -1.03491  -1.00700  -0.99229
 Alpha  occ. eigenvalues --   -0.96197  -0.94684  -0.93047  -0.89747  -0.88145
 Alpha  occ. eigenvalues --   -0.87345  -0.86254  -0.85145  -0.84577  -0.83774
 Alpha  occ. eigenvalues --   -0.81691  -0.79507  -0.78208  -0.77654  -0.76306
 Alpha  occ. eigenvalues --   -0.73835  -0.72962  -0.72894  -0.72599  -0.70852
 Alpha  occ. eigenvalues --   -0.70437  -0.69535  -0.68001  -0.66454  -0.65190
 Alpha  occ. eigenvalues --   -0.63502  -0.63278  -0.62277  -0.61731  -0.60197
 Alpha  occ. eigenvalues --   -0.58836  -0.57912  -0.57464  -0.56521  -0.56122
 Alpha  occ. eigenvalues --   -0.55774  -0.55120  -0.55022  -0.54567  -0.54275
 Alpha  occ. eigenvalues --   -0.53615  -0.53137  -0.53003  -0.52292  -0.52079
 Alpha  occ. eigenvalues --   -0.51902  -0.51600  -0.51261  -0.50941  -0.50570
 Alpha  occ. eigenvalues --   -0.50463  -0.50374  -0.49940  -0.49429  -0.48337
 Alpha  occ. eigenvalues --   -0.47230  -0.46770  -0.46460  -0.46271  -0.46007
 Alpha  occ. eigenvalues --   -0.45755  -0.44879  -0.44511  -0.44004  -0.43898
 Alpha  occ. eigenvalues --   -0.43447  -0.43039  -0.42159  -0.41650  -0.41249
 Alpha  occ. eigenvalues --   -0.40582  -0.40461  -0.39845  -0.38173  -0.37562
 Alpha  occ. eigenvalues --   -0.35569  -0.35306  -0.33869  -0.33510  -0.33388
 Alpha  occ. eigenvalues --   -0.32998  -0.32023  -0.30471  -0.29141  -0.26989
 Alpha  occ. eigenvalues --   -0.24644
 Alpha virt. eigenvalues --   -0.00246   0.03015   0.03276   0.04464   0.06300
 Alpha virt. eigenvalues --    0.07287   0.08380   0.10605   0.14176   0.15009
 Alpha virt. eigenvalues --    0.15501   0.16432   0.17304   0.17631   0.18451

 Mulliken atomic charges:
              1
     1  C   -0.194973
     2  C   -0.155860
     3  C    0.036873
     4  C    0.009566
     5  N   -0.425780
     6  C    0.024669
     7  C    0.296115
     8  C   -0.256493
     9  C    0.049757
    10  N   -0.495250
    11  C    0.722285
    12  N   -0.570730
    13  N   -0.811466
    14  C    0.292559
    15  C    0.118338
    16  C   -0.240671
    17  C   -0.190499
    18  C    0.366846
    19  C   -0.276372
    20  N   -0.772242
    21  C    0.599132
    22  C    0.016499
    23  C   -0.178644
    24  C   -0.222663
    25  C    0.157679
    26  C   -0.213075
    27  C   -0.205517
    28  C   -0.263160
    29  N   -0.381563
    30  C   -0.186234
    31  C   -0.181478
    32  N   -0.384825
    33  C   -0.348641
    34  C   -0.181899
    35  C   -0.185587
    36  O   -0.517256
    37  C   -0.609297
    38  H    0.185660
    39  H    0.186008
    40  H    0.196522
    41  H    0.178710
    42  H    0.181200
    43  H    0.189589
    44  H    0.370263
    45  H    0.160387
    46  H    0.213841
    47  H    0.204584
    48  H    0.364198
    49  H    0.199014
    50  H    0.164969
    51  H    0.164483
    52  H    0.176063
    53  H    0.168930
    54  H    0.168245
    55  H    0.152487
    56  H    0.159127
    57  H    0.151969
    58  H    0.171180
    59  H    0.133114
    60  H    0.165883
    61  H    0.165340
    62  H    0.147201
    63  H    0.185500
    64  H    0.157083
    65  H    0.145844
    66  H    0.180419
    67  H    0.181119
    68  H    0.190926
 Sum of Mulliken atomic charges =   0.00000

 Dipole moment (field-independent basis, Debye):
    X=             -1.2723    Y=              6.3576    Z=             -0.7033  Tot=              6.5217
 Quadrupole moment (field-independent basis, Debye-Ang):
   XX=           -194.9428   YY=           -202.2218   ZZ=           -216.1900
   XY=             -5.6623   XZ=             -1.6381   YZ=            -12.1175

 Normal termination of Gaussian 09 at Thu Apr  9 00:15:39 2020.
