 Gaussian 09, Revision A.02,
 Gaussian 09:  EM64L-G09RevA.02 11-Jun-2009

 --------------------------------------------------
 #P opt=(,maxcycle=400) wB97XD/6-31G* MaxDisk=100GB
 --------------------------------------------------

 --------------------------------------------------------------
 MOLECULE0 Rotatable Bond Optimization on node37.bme.utexas.edu
 --------------------------------------------------------------
 Symbolic Z-matrix:
 Charge =  0 Multiplicity = 1

 SCF Done:  E(RwB97XD) =  -1581.56427055     A.U. after   16 cycles
 SCF Done:  E(RwB97XD) =  -1581.62875931     A.U. after   13 cycles
 SCF Done:  E(RwB97XD) =  -1581.71729363     A.U. after   14 cycles
 SCF Done:  E(RwB97XD) =  -1581.73746114     A.U. after   17 cycles
 SCF Done:  E(RwB97XD) =  -1581.75654784     A.U. after   17 cycles
 SCF Done:  E(RwB97XD) =  -1581.75958452     A.U. after   14 cycles
 SCF Done:  E(RwB97XD) =  -1581.76064809     A.U. after   14 cycles
 SCF Done:  E(RwB97XD) =  -1581.76045118     A.U. after   16 cycles
 SCF Done:  E(RwB97XD) =  -1581.76118285     A.U. after   14 cycles
 SCF Done:  E(RwB97XD) =  -1581.76111583     A.U. after   14 cycles
 SCF Done:  E(RwB97XD) =  -1581.76157930     A.U. after   12 cycles
 SCF Done:  E(RwB97XD) =  -1581.76158844     A.U. after   13 cycles
 SCF Done:  E(RwB97XD) =  -1581.76161530     A.U. after   12 cycles
 SCF Done:  E(RwB97XD) =  -1581.76162388     A.U. after   12 cycles
 SCF Done:  E(RwB97XD) =  -1581.76162833     A.U. after   12 cycles
 SCF Done:  E(RwB97XD) =  -1581.76163218     A.U. after   10 cycles
 SCF Done:  E(RwB97XD) =  -1581.76163342     A.U. after    8 cycles
 SCF Done:  E(RwB97XD) =  -1581.76163376     A.U. after    7 cycles
 SCF Done:  E(RwB97XD) =  -1581.76163406     A.U. after    8 cycles
 SCF Done:  E(RwB97XD) =  -1581.76163404     A.U. after    7 cycles
 Optimization completed.
    -- Stationary point found.

                         Standard orientation:
 ---------------------------------------------------------------------
 Center     Atomic      Atomic             Coordinates (Angstroms)
 Number     Number       Type             X           Y           Z
 ---------------------------------------------------------------------
      1          6           0       -1.226865    4.807016   -0.671335
      2          6           0       -2.527861    4.351273   -0.496561
      3          6           0       -2.732793    3.055650   -0.025420
      4          6           0       -1.597265    2.284554    0.256964
      5          7           0       -0.345218    2.704063    0.084658
      6          6           0       -0.174514    3.946653   -0.377140
      7          6           0       -4.080959    2.457797    0.141430
      8          6           0       -5.243855    3.198463    0.333930
      9          6           0       -6.425443    2.465736    0.440667
     10          7           0       -6.481077    1.141970    0.383632
     11          6           0       -5.295049    0.521895    0.217655
     12          7           0       -4.114133    1.124309    0.085547
     13          7           0       -5.361945   -0.843613    0.184662
     14          6           0       -4.331749   -1.801353    0.129116
     15          6           0       -4.639433   -3.127693    0.493469
     16          6           0       -3.609978   -4.063279    0.456410
     17          6           0       -2.302127   -3.748725    0.094623
     18          6           0       -2.023352   -2.433558   -0.268169
     19          6           0       -3.040250   -1.478294   -0.272906
     20          7           0       -0.751087   -1.955887   -0.630559
     21          6           0        0.464993   -2.583535   -0.559188
     22          6           0        1.634176   -1.685457   -0.853941
     23          6           0        2.790542   -2.277896   -1.364035
     24          6           0        3.899117   -1.500809   -1.670388
     25          6           0        3.894770   -0.120369   -1.451713
     26          6           0        2.738395    0.462366   -0.932794
     27          6           0        1.620672   -0.305673   -0.629770
     28          6           0        5.126256    0.721919   -1.752539
     29          7           0        6.110941    0.906882   -0.700556
     30          6           0        6.909302   -0.251187   -0.315317
     31          6           0        6.333918   -1.033332    0.877776
     32          7           0        6.042211   -0.184080    2.029653
     33          6           0        7.223357    0.245348    2.756817
     34          6           0        5.165274    0.911515    1.625997
     35          6           0        5.723724    1.722729    0.444532
     36          8           0        0.608453   -3.767927   -0.301988
     37          6           0       -6.030629   -3.521177    0.921044
     38          1           0       -1.030099    5.805667   -1.046198
     39          1           0       -3.369853    4.988164   -0.752293
     40          1           0       -1.723860    1.278599    0.648336
     41          1           0        0.855156    4.266084   -0.520126
     42          1           0       -5.245449    4.278384    0.415267
     43          1           0       -7.376806    2.974049    0.584105
     44          1           0       -6.299395   -1.186393    0.332405
     45          1           0       -3.834925   -5.089602    0.735402
     46          1           0       -1.520252   -4.494658    0.097295
     47          1           0       -2.820744   -0.461663   -0.562674
     48          1           0       -0.737426   -0.997515   -0.945353
     49          1           0        2.798515   -3.351674   -1.520711
     50          1           0        4.786655   -1.972657   -2.086146
     51          1           0        2.702851    1.533810   -0.750192
     52          1           0        0.762765    0.198621   -0.192011
     53          1           0        5.649039    0.281659   -2.610921
     54          1           0        4.797364    1.721026   -2.065696
     55          1           0        7.019854   -0.910163   -1.184078
     56          1           0        7.918554    0.104510   -0.058697
     57          1           0        7.036064   -1.817331    1.186130
     58          1           0        5.399222   -1.524121    0.582476
     59          1           0        7.924254    0.884826    2.191543
     60          1           0        7.777169   -0.638681    3.091320
     61          1           0        6.911859    0.801661    3.647765
     62          1           0        5.000552    1.569347    2.488020
     63          1           0        4.196594    0.477457    1.352619
     64          1           0        6.612523    2.278180    0.779389
     65          1           0        4.991303    2.468794    0.115607
     66          1           0       -6.771076   -3.363979    0.124714
     67          1           0       -6.363871   -2.956278    1.801282
     68          1           0       -6.066256   -4.581693    1.182789
 ---------------------------------------------------------------------

 The electronic state is 1-A.
 Alpha  occ. eigenvalues --  -19.23347 -14.49256 -14.48457 -14.46728 -14.46087
 Alpha  occ. eigenvalues --  -14.45740 -14.43379 -14.42722 -10.41748 -10.40127
 Alpha  occ. eigenvalues --  -10.37599 -10.36338 -10.35289 -10.35028 -10.34637
 Alpha  occ. eigenvalues --  -10.34135 -10.34068 -10.33599 -10.32848 -10.32292
 Alpha  occ. eigenvalues --  -10.31856 -10.31037 -10.30996 -10.30955 -10.30710
 Alpha  occ. eigenvalues --  -10.30699 -10.30370 -10.30279 -10.30256 -10.30234
 Alpha  occ. eigenvalues --  -10.30232 -10.30117 -10.30111 -10.30033 -10.29533
 Alpha  occ. eigenvalues --  -10.28847 -10.28335  -1.13492  -1.12301  -1.06306
 Alpha  occ. eigenvalues --   -1.04558  -1.03602  -1.03553  -1.00718  -0.99257
 Alpha  occ. eigenvalues --   -0.96019  -0.94682  -0.93091  -0.89763  -0.88059
 Alpha  occ. eigenvalues --   -0.87362  -0.86237  -0.85108  -0.84471  -0.83761
 Alpha  occ. eigenvalues --   -0.81666  -0.79491  -0.78258  -0.77659  -0.76306
 Alpha  occ. eigenvalues --   -0.73858  -0.72954  -0.72946  -0.72598  -0.70813
 Alpha  occ. eigenvalues --   -0.70268  -0.69519  -0.67961  -0.66409  -0.65193
 Alpha  occ. eigenvalues --   -0.63616  -0.63255  -0.62260  -0.61800  -0.60197
 Alpha  occ. eigenvalues --   -0.58814  -0.57958  -0.57454  -0.56468  -0.56069
 Alpha  occ. eigenvalues --   -0.55802  -0.55145  -0.54950  -0.54630  -0.54225
 Alpha  occ. eigenvalues --   -0.53567  -0.53188  -0.52974  -0.52334  -0.52180
 Alpha  occ. eigenvalues --   -0.51854  -0.51495  -0.51333  -0.50900  -0.50593
 Alpha  occ. eigenvalues --   -0.50458  -0.50177  -0.49951  -0.49426  -0.48310
 Alpha  occ. eigenvalues --   -0.47275  -0.46728  -0.46452  -0.46285  -0.45987
 Alpha  occ. eigenvalues --   -0.45575  -0.44873  -0.44525  -0.43927  -0.43717
 Alpha  occ. eigenvalues --   -0.43438  -0.43047  -0.42064  -0.41690  -0.41204
 Alpha  occ. eigenvalues --   -0.40646  -0.40591  -0.39936  -0.38200  -0.37598
 Alpha  occ. eigenvalues --   -0.35782  -0.35283  -0.33997  -0.33447  -0.33339
 Alpha  occ. eigenvalues --   -0.32836  -0.31833  -0.30556  -0.29157  -0.27089
 Alpha  occ. eigenvalues --   -0.24671
 Alpha virt. eigenvalues --   -0.00298   0.02900   0.03363   0.04521   0.06516
 Alpha virt. eigenvalues --    0.07280   0.08337   0.10417   0.14540   0.14890
 Alpha virt. eigenvalues --    0.15955   0.16292   0.17361   0.17725   0.18683

 Mulliken atomic charges:
              1
     1  C   -0.197807
     2  C   -0.155249
     3  C    0.035176
     4  C    0.006869
     5  N   -0.435295
     6  C    0.031071
     7  C    0.295622
     8  C   -0.255120
     9  C    0.048872
    10  N   -0.492953
    11  C    0.712273
    12  N   -0.567578
    13  N   -0.800061
    14  C    0.290107
    15  C    0.119864
    16  C   -0.240159
    17  C   -0.189956
    18  C    0.357059
    19  C   -0.267454
    20  N   -0.767158
    21  C    0.599364
    22  C    0.016474
    23  C   -0.176844
    24  C   -0.223302
    25  C    0.159697
    26  C   -0.228607
    27  C   -0.208126
    28  C   -0.262961
    29  N   -0.380706
    30  C   -0.186280
    31  C   -0.183431
    32  N   -0.383586
    33  C   -0.349530
    34  C   -0.182819
    35  C   -0.184778
    36  O   -0.516463
    37  C   -0.608193
    38  H    0.186489
    39  H    0.186329
    40  H    0.201319
    41  H    0.181244
    42  H    0.180746
    43  H    0.189376
    44  H    0.369158
    45  H    0.160916
    46  H    0.215608
    47  H    0.195923
    48  H    0.359659
    49  H    0.198331
    50  H    0.163886
    51  H    0.166923
    52  H    0.188273
    53  H    0.168953
    54  H    0.166644
    55  H    0.152157
    56  H    0.159060
    57  H    0.153105
    58  H    0.173791
    59  H    0.133784
    60  H    0.167286
    61  H    0.166567
    62  H    0.152231
    63  H    0.173961
    64  H    0.158569
    65  H    0.149568
    66  H    0.177711
    67  H    0.183645
    68  H    0.190756
 Sum of Mulliken atomic charges =   0.00000

 Dipole moment (field-independent basis, Debye):
    X=             -2.5384    Y=              6.1219    Z=             -1.0838  Tot=              6.7153
 Quadrupole moment (field-independent basis, Debye-Ang):
   XX=           -189.8157   YY=           -196.2303   ZZ=           -219.0732
   XY=             -6.1417   XZ=             -5.5467   YZ=             -1.6488

 Normal termination of Gaussian 09 at Wed Apr  8 23:31:07 2020.
