                               Psi4 1.3.2 release

  ==> Input File <==

--------------------------------------------------------------------------
molecule {
0 1
 C   -1.400973    5.014842   -0.330504
 C   -2.713681    4.525176   -0.291451
 C   -2.946015    3.143056   -0.146711
 C   -1.787378    2.336396   -0.021666
 N   -0.525380    2.783523   -0.048591
 C   -0.345687    4.103563   -0.208309
 C   -4.324059    2.528743   -0.099258
 C   -5.537563    3.234902   -0.094025
 C   -6.694133    2.452136   -0.001263
 N   -6.701622    1.123344    0.061388
 C   -5.491908    0.526368    0.020913
 N   -4.330851    1.182795   -0.055670
 N   -5.505193   -0.860430    0.061004
 C   -4.461727   -1.854014    0.137365
 C   -4.779702   -3.181744    0.555033
 C   -3.719190   -4.101229    0.631269
 C   -2.389949   -3.789668    0.320274
 C   -2.098945   -2.492107   -0.112964
 C   -3.136190   -1.549951   -0.195407
 N   -0.807392   -1.995075   -0.480799
 C    0.445842   -2.549413   -0.370515
 C    1.631654   -1.659794   -0.692465
 C    2.742195   -2.242310   -1.325063
 C    3.845941   -1.461554   -1.676213
 C    3.885348   -0.080578   -1.404723
 C    2.767979    0.488777   -0.765449
 C    1.662520   -0.284344   -0.405401
 C    5.104452    0.766655   -1.771741
 N    6.198558    0.914771   -0.795995
 C    7.052690   -0.257845   -0.500594
 C    6.644993   -1.070369    0.755581
 N    6.469872   -0.258536    1.982146
 C    7.689788    0.066813    2.730580
 C    5.556740    0.868993    1.682242
 C    5.954126    1.700469    0.435103
 O    0.621015   -3.714303   -0.049486
 C   -6.181075   -3.625462    0.938127
 H   -1.199665    6.075029   -0.452763
 H   -3.530909    5.234562   -0.393493
 H   -1.888258    1.268574    0.138395
 H    0.688624    4.443400   -0.230763
 H   -5.612106    4.314984   -0.124229
 H   -7.675231    2.925502    0.029071
 H   -6.455175   -1.186188    0.158713
 H   -3.922336   -5.120583    0.957690
 H   -1.600104   -4.526925    0.398748
 H   -2.919446   -0.548801   -0.530713
 H   -0.816246   -1.053903   -0.848267
 H    2.720964   -3.308297   -1.537927
 H    4.692170   -1.944843   -2.163963
 H    2.754724    1.552916   -0.529999
 H    0.815058    0.184234    0.090126
 H    5.548033    0.354175   -2.690023
 H    4.758390    1.780720   -2.018953
 H    7.153547   -0.887725   -1.377661
 H    8.492889    0.299705   -0.180600
 H    7.538480   -2.005403    0.982519
 H    5.388474   -1.714724    0.491788
 H    8.348507    0.719455    2.146637
 H    8.234476   -0.850352    2.982295
 H    7.433517    0.571848    3.668932
 H    5.474366    1.610467    2.686341
 H    4.261719    0.308593    1.449637
 H    7.314225    2.389287    0.812193
 H    5.226318    2.519694    0.237979
 H   -6.863610   -3.582325    0.077681
 H   -6.603994   -2.988864    1.728049
 H   -6.216100   -4.656354    1.316743
}
memory 20GB
set_num_threads(6)
psi4_io.set_default_path("/scratch/bdw2292")
set freeze_core True
E, wfn = energy('mp2/6-311++G**',return_wfn=True)
oeprop(wfn,"WIBERG_LOWDIN_INDICES")
clean()
--------------------------------------------------------------------------

    Molecular point group: c1

    Geometry (in Angstrom), charge = 0, multiplicity = 1:

       Center              X                  Y                   Z               Mass
    ------------   -----------------  -----------------  -----------------  -----------------
         C           -1.284742903705     5.010914251096    -0.310603188324    12.000000000000
         C           -2.597450903705     4.521248251096    -0.271550188324    12.000000000000
         C           -2.829784903705     3.139128251096    -0.126810188324    12.000000000000
         C           -1.671147903705     2.332468251096    -0.001765188324    12.000000000000
         N           -0.409149903705     2.779595251096    -0.028690188324    14.003074004430
         C           -0.229456903705     4.099635251096    -0.188408188324    12.000000000000
         C           -4.207828903705     2.524815251096    -0.079357188324    12.000000000000
         C           -5.421332903705     3.230974251096    -0.074124188324    12.000000000000
         C           -6.577902903705     2.448208251096     0.018637811676    12.000000000000
         N           -6.585391903705     1.119416251096     0.081288811676    14.003074004430
         C           -5.375677903705     0.522440251096     0.040813811676    12.000000000000
         N           -4.214620903705     1.178867251096    -0.035769188324    14.003074004430
         N           -5.388962903705    -0.864357748904     0.080904811676    14.003074004430
         C           -4.345496903705    -1.857941748904     0.157265811676    12.000000000000
         C           -4.663471903705    -3.185671748904     0.574933811676    12.000000000000
         C           -3.602959903705    -4.105156748904     0.651169811676    12.000000000000
         C           -2.273718903705    -3.793595748904     0.340174811676    12.000000000000
         C           -1.982714903705    -2.496034748904    -0.093063188324    12.000000000000
         C           -3.019959903705    -1.553878748904    -0.175506188324    12.000000000000
         N           -0.691161903705    -1.999002748904    -0.460898188324    14.003074004430
         C            0.562072096295    -2.553340748904    -0.350614188324    12.000000000000
         C            1.747884096295    -1.663721748904    -0.672564188324    12.000000000000
         C            2.858425096295    -2.246237748904    -1.305162188324    12.000000000000
         C            3.962171096295    -1.465481748904    -1.656312188324    12.000000000000
         C            4.001578096295    -0.084505748904    -1.384822188324    12.000000000000
         C            2.884209096295     0.484849251096    -0.745548188324    12.000000000000
         C            1.778750096295    -0.288271748904    -0.385500188324    12.000000000000
         C            5.220682096295     0.762727251096    -1.751840188324    12.000000000000
         N            6.314788096295     0.910843251096    -0.776094188324    14.003074004430
         C            7.168920096295    -0.261772748904    -0.480693188324    12.000000000000
         C            6.761223096295    -1.074296748904     0.775481811676    12.000000000000
         N            6.586102096295    -0.262463748904     2.002046811676    14.003074004430
         C            7.806018096295     0.062885251096     2.750480811676    12.000000000000
         C            5.672970096295     0.865065251096     1.702142811676    12.000000000000
         C            6.070356096295     1.696541251096     0.455003811676    12.000000000000
         O            0.737245096295    -3.718230748904    -0.029585188324    15.994914619570
         C           -6.064844903705    -3.629389748904     0.958027811676    12.000000000000
         H           -1.083434903705     6.071101251096    -0.432862188324     1.007825032230
         H           -3.414678903705     5.230634251096    -0.373592188324     1.007825032230
         H           -1.772027903705     1.264646251096     0.158295811676     1.007825032230
         H            0.804854096295     4.439472251096    -0.210862188324     1.007825032230
         H           -5.495875903705     4.311056251096    -0.104328188324     1.007825032230
         H           -7.559000903705     2.921574251096     0.048971811676     1.007825032230
         H           -6.338944903705    -1.190115748904     0.178613811676     1.007825032230
         H           -3.806105903705    -5.124510748904     0.977590811676     1.007825032230
         H           -1.483873903705    -4.530852748904     0.418648811676     1.007825032230
         H           -2.803215903705    -0.552728748904    -0.510812188324     1.007825032230
         H           -0.700015903705    -1.057830748904    -0.828366188324     1.007825032230
         H            2.837194096295    -3.312224748904    -1.518026188324     1.007825032230
         H            4.808400096295    -1.948770748904    -2.144062188324     1.007825032230
         H            2.870954096295     1.548988251096    -0.510098188324     1.007825032230
         H            0.931288096295     0.180306251096     0.110026811676     1.007825032230
         H            5.664263096295     0.350247251096    -2.670122188324     1.007825032230
         H            4.874620096295     1.776792251096    -1.999052188324     1.007825032230
         H            7.269777096295    -0.891652748904    -1.357760188324     1.007825032230
         H            8.609119096295     0.295777251096    -0.160699188324     1.007825032230
         H            7.654710096295    -2.009330748904     1.002419811676     1.007825032230
         H            5.504704096295    -1.718651748904     0.511688811676     1.007825032230
         H            8.464737096295     0.715527251096     2.166537811676     1.007825032230
         H            8.350706096295    -0.854279748904     3.002195811676     1.007825032230
         H            7.549747096295     0.567920251096     3.688832811676     1.007825032230
         H            5.590596096295     1.606539251096     2.706241811676     1.007825032230
         H            4.377949096295     0.304665251096     1.469537811676     1.007825032230
         H            7.430455096295     2.385359251096     0.832093811676     1.007825032230
         H            5.342548096295     2.515766251096     0.257879811676     1.007825032230
         H           -6.747379903705    -3.586252748904     0.097581811676     1.007825032230
         H           -6.487763903705    -2.992791748904     1.747949811676     1.007825032230
         H           -6.099869903705    -4.660281748904     1.336643811676     1.007825032230

  Charge       = 0
  Multiplicity = 1
  Basis Set: 6-311++G**
    Blend: 6-311++G**
  Basis Set: (6-311++G** AUX)
    Blend: AUG-CC-PVTZ-JKFIT

    Orbital Energies [Eh]
    ---------------------

    Doubly Occupied:

       1A    -20.521046     2A    -15.604526     3A    -15.602250
       4A    -15.588386     5A    -15.575167     6A    -15.571673
       7A    -15.569817     8A    -15.554118     9A    -11.376264
      10A    -11.363981    11A    -11.335351    12A    -11.315050
      13A    -11.309697    14A    -11.309455    15A    -11.306517
      16A    -11.304583    17A    -11.302501    18A    -11.301779
      19A    -11.301670    20A    -11.293098    21A    -11.290276
      22A    -11.281485    23A    -11.280027    24A    -11.266662
      25A    -11.257387    26A    -11.257149    27A    -11.253371
      28A    -11.253184    29A    -11.250008    30A    -11.247674
      31A    -11.246244    32A    -11.246057    33A    -11.243502
      34A    -11.240302    35A    -11.235718    36A    -11.231147
      37A    -11.225429    38A     -1.386621    39A     -1.345268
      40A     -1.279672    41A     -1.251562    42A     -1.244978
      43A     -1.241862    44A     -1.210609    45A     -1.199256
      46A     -1.162005    47A     -1.140071    48A     -1.116781
      49A     -1.076200    50A     -1.060044    51A     -1.049398
      52A     -1.038196    53A     -1.023965    54A     -1.008333
      55A     -0.994954    56A     -0.976397    57A     -0.946237
      58A     -0.927459    59A     -0.926374    60A     -0.901546
      61A     -0.873614    62A     -0.866325    63A     -0.858855
      64A     -0.842586    65A     -0.837508    66A     -0.830265
      67A     -0.825441    68A     -0.806070    69A     -0.778615
      70A     -0.754829    71A     -0.739825    72A     -0.731699
      73A     -0.722644    74A     -0.700014    75A     -0.695128
      76A     -0.683738    77A     -0.677974    78A     -0.668592
      79A     -0.659986    80A     -0.657645    81A     -0.652355
      82A     -0.645668    83A     -0.638049    84A     -0.629664
      85A     -0.623750    86A     -0.618924    87A     -0.612845
      88A     -0.607440    89A     -0.603131    90A     -0.601404
      91A     -0.599500    92A     -0.596342    93A     -0.592373
      94A     -0.591123    95A     -0.587681    96A     -0.581320
      97A     -0.579196    98A     -0.570756    99A     -0.563472
     100A     -0.562464   101A     -0.548228   102A     -0.545336
     103A     -0.538151   104A     -0.526004   105A     -0.524110
     106A     -0.521901   107A     -0.513639   108A     -0.509386
     109A     -0.507193   110A     -0.499102   111A     -0.498629
     112A     -0.492277   113A     -0.485479   114A     -0.481462
     115A     -0.461338   116A     -0.452960   117A     -0.444087
     118A     -0.429734   119A     -0.426953   120A     -0.424246
     121A     -0.415474   122A     -0.401277   123A     -0.387974
     124A     -0.378568   125A     -0.374424   126A     -0.347217
     127A     -0.345677   128A     -0.341075   129A     -0.315353
     130A     -0.309039   131A     -0.290842

  @DF-RHF Final Energy: -1572.32560613571468

   => Energetics <=

    Nuclear Repulsion Energy =           3695.0948526962747565
    One-Electron Energy =               -9488.3883639209543617
    Two-Electron Energy =                4220.9679050889653809
    Total Energy =                      -1572.3256061357142244

  Dipole Moment: [D]
     X:    -3.4197      Y:     6.5190      Z:    -1.3945     Total:     7.4924

  Basis Set: (6-311++G** AUX)
    Blend: AUG-CC-PVTZ-RI
	 Reference Energy          =   -1572.3256061357146791 [Eh]
	 Singles Energy            =      -0.0000000000000000 [Eh]
	 Same-Spin Energy          =      -1.4714451042704684 [Eh]
	 Opposite-Spin Energy      =      -4.0498498853558269 [Eh]
	 Correlation Energy        =      -5.5212949896262948 [Eh]
	 Total Energy              =   -1577.8469011253409917 [Eh]

	 ================> DF-SCS-MP2 Energies <==================
	-----------------------------------------------------------
	 SCS Same-Spin Scale       =       0.3333333333333333 [-]
	 SCS Opposite-Spin Scale   =       1.2000000000000000 [-]
	 SCS Same-Spin Energy      =      -0.4904817014234895 [Eh]
	 SCS Opposite-Spin Energy  =      -4.8598198624269919 [Eh]
	 SCS Correlation Energy    =      -5.3503015638504809 [Eh]
	 SCS Total Energy          =   -1577.6759076995651867 [Eh]
	-----------------------------------------------------------

*** Psi4 exiting successfully. Buy a developer a beer!
