                               Psi4 1.3.2 release

  ==> Input File <==

--------------------------------------------------------------------------
molecule {
0 1
 C   -6.849433   -3.684977   -1.942880
 C   -6.051384   -3.280973   -0.864332
 C   -5.777665   -1.912874   -0.663237
 C   -6.354442   -1.021151   -1.601700
 N   -7.118790   -1.391706   -2.637687
 C   -7.356851   -2.701289   -2.798277
 C   -4.925704   -1.391995    0.466726
 C   -4.295227   -2.184581    1.442828
 C   -3.542486   -1.494600    2.400490
 N   -3.394263   -0.173389    2.425984
 C   -4.039030    0.497108    1.452453
 N   -4.781964   -0.052855    0.493512
 N   -3.889672    1.853956    1.486700
 C   -2.781887    2.695786    1.143135
 C   -2.929071    4.112553    1.235226
 C   -1.819173    4.894592    0.879846
 C   -0.598235    4.362398    0.453509
 C   -0.465355    2.971040    0.378224
 C   -1.558599    2.155113    0.721683
 N    0.715301    2.276131   -0.047737
 C    1.980960    2.741961   -0.322301
 C    3.030440    1.748335   -0.781418
 C    2.735562    0.603658   -1.540027
 C    3.754977   -0.264927   -1.936950
 C    5.101639   -0.013931   -1.612448
 C    5.384460    1.142791   -0.861260
 C    4.371667    2.016786   -0.460198
 C    6.213691   -0.976511   -2.033753
 N    6.549689   -2.115769   -1.160803
 C    5.604078   -3.250941   -1.071115
 C    4.609613   -3.168252    0.114957
 N    5.249861   -2.964641    1.434974
 C    5.783306   -4.159872    2.099441
 C    6.158790   -1.796226    1.350623
 C    7.155758   -1.842701    0.163061
 O    2.286340    3.916587   -0.192047
 C   -4.208665    4.797194    1.684239
 H   -7.072504   -4.733373   -2.117512
 H   -5.659503   -4.048377   -0.201145
 H   -6.182165    0.047248   -1.505155
 H   -7.979801   -2.969070   -3.650103
 H   -4.363206   -3.264919    1.483687
 H   -3.023213   -2.037615    3.189703
 H   -4.749410    2.291796    1.783396
 H   -1.892693    5.980037    0.932761
 H    0.231400    5.006987    0.191071
 H   -1.471115    1.077737    0.672895
 H    0.627857    1.269954   -0.041634
 H    1.706807    0.400696   -1.826731
 H    3.492637   -1.147854   -2.520117
 H    6.412681    1.374800   -0.584848
 H    4.601792    2.914983    0.107535
 H    5.956962   -1.393306   -3.018764
 H    7.138921   -0.397158   -2.167302
 H    5.123201   -3.411167   -1.993515
 H    6.471557   -4.539852   -0.793069
 H    3.852995   -4.443371    0.149549
 H    3.799127   -2.243537   -0.062602
 H    6.618499   -4.586309    1.532273
 H    4.999274   -4.919167    2.199313
 H    6.134419   -3.906896    3.106527
 H    6.730888   -1.670944    2.373136
 H    5.313983   -0.615467    1.172763
 H    8.122151   -3.050808    0.481027
 H    7.787998   -0.933760    0.120526
 H   -4.480653    4.505729    2.708603
 H   -5.052959    4.538753    1.029503
 H   -4.133266    5.893366    1.680097
}
memory 20GB
set_num_threads(6)
psi4_io.set_default_path("/scratch/bdw2292")
set freeze_core True
E, wfn = energy('mp2/6-311++G**',return_wfn=True)
oeprop(wfn,"WIBERG_LOWDIN_INDICES")
clean()
--------------------------------------------------------------------------

    Molecular point group: c1

    Geometry (in Angstrom), charge = 0, multiplicity = 1:

       Center              X                  Y                   Z               Mass
    ------------   -----------------  -----------------  -----------------  -----------------
         C           -6.773450025981    -3.738993856645    -1.941437850172    12.000000000000
         C           -5.975401025981    -3.334989856645    -0.862889850172    12.000000000000
         C           -5.701682025981    -1.966890856645    -0.661794850172    12.000000000000
         C           -6.278459025981    -1.075167856645    -1.600257850172    12.000000000000
         N           -7.042807025981    -1.445722856645    -2.636244850172    14.003074004430
         C           -7.280868025981    -2.755305856645    -2.796834850172    12.000000000000
         C           -4.849721025981    -1.446011856645     0.468168149828    12.000000000000
         C           -4.219244025981    -2.238597856645     1.444270149828    12.000000000000
         C           -3.466503025981    -1.548616856645     2.401932149828    12.000000000000
         N           -3.318280025981    -0.227405856645     2.427426149828    14.003074004430
         C           -3.963047025981     0.443091143355     1.453895149828    12.000000000000
         N           -4.705981025981    -0.106871856645     0.494954149828    14.003074004430
         N           -3.813689025981     1.799939143355     1.488142149828    14.003074004430
         C           -2.705904025981     2.641769143355     1.144577149828    12.000000000000
         C           -2.853088025981     4.058536143355     1.236668149828    12.000000000000
         C           -1.743190025981     4.840575143355     0.881288149828    12.000000000000
         C           -0.522252025981     4.308381143355     0.454951149828    12.000000000000
         C           -0.389372025981     2.917023143355     0.379666149828    12.000000000000
         C           -1.482616025981     2.101096143355     0.723125149828    12.000000000000
         N            0.791283974019     2.222114143355    -0.046294850172    14.003074004430
         C            2.056942974019     2.687944143355    -0.320858850172    12.000000000000
         C            3.106422974019     1.694318143355    -0.779975850172    12.000000000000
         C            2.811544974019     0.549641143355    -1.538584850172    12.000000000000
         C            3.830959974019    -0.318943856645    -1.935507850172    12.000000000000
         C            5.177621974019    -0.067947856645    -1.611005850172    12.000000000000
         C            5.460442974019     1.088774143355    -0.859817850172    12.000000000000
         C            4.447649974019     1.962769143355    -0.458755850172    12.000000000000
         C            6.289673974019    -1.030527856645    -2.032310850172    12.000000000000
         N            6.625671974019    -2.169785856645    -1.159360850172    14.003074004430
         C            5.680060974019    -3.304957856645    -1.069672850172    12.000000000000
         C            4.685595974019    -3.222268856645     0.116399149828    12.000000000000
         N            5.325843974019    -3.018657856645     1.436416149828    14.003074004430
         C            5.859288974019    -4.213888856645     2.100883149828    12.000000000000
         C            6.234772974019    -1.850242856645     1.352065149828    12.000000000000
         C            7.231740974019    -1.896717856645     0.164503149828    12.000000000000
         O            2.362322974019     3.862570143355    -0.190604850172    15.994914619570
         C           -4.132682025981     4.743177143355     1.685681149828    12.000000000000
         H           -6.996521025981    -4.787389856645    -2.116069850172     1.007825032230
         H           -5.583520025981    -4.102393856645    -0.199702850172     1.007825032230
         H           -6.106182025981    -0.006768856645    -1.503712850172     1.007825032230
         H           -7.903818025981    -3.023086856645    -3.648660850172     1.007825032230
         H           -4.287223025981    -3.318935856645     1.485129149828     1.007825032230
         H           -2.947230025981    -2.091631856645     3.191145149828     1.007825032230
         H           -4.673427025981     2.237779143355     1.784838149828     1.007825032230
         H           -1.816710025981     5.926020143355     0.934203149828     1.007825032230
         H            0.307382974019     4.952970143355     0.192513149828     1.007825032230
         H           -1.395132025981     1.023720143355     0.674337149828     1.007825032230
         H            0.703839974019     1.215937143355    -0.040191850172     1.007825032230
         H            1.782789974019     0.346679143355    -1.825288850172     1.007825032230
         H            3.568619974019    -1.201870856645    -2.518674850172     1.007825032230
         H            6.488663974019     1.320783143355    -0.583405850172     1.007825032230
         H            4.677774974019     2.860966143355     0.108977149828     1.007825032230
         H            6.032944974019    -1.447322856645    -3.017321850172     1.007825032230
         H            7.214903974019    -0.451174856645    -2.165859850172     1.007825032230
         H            5.199183974019    -3.465183856645    -1.992072850172     1.007825032230
         H            6.547539974019    -4.593868856645    -0.791626850172     1.007825032230
         H            3.928977974019    -4.497387856645     0.150991149828     1.007825032230
         H            3.875109974019    -2.297553856645    -0.061159850172     1.007825032230
         H            6.694481974019    -4.640325856645     1.533715149828     1.007825032230
         H            5.075256974019    -4.973183856645     2.200755149828     1.007825032230
         H            6.210401974019    -3.960912856645     3.107969149828     1.007825032230
         H            6.806870974019    -1.724960856645     2.374578149828     1.007825032230
         H            5.389965974019    -0.669483856645     1.174205149828     1.007825032230
         H            8.198133974019    -3.104824856645     0.482469149828     1.007825032230
         H            7.863980974019    -0.987776856645     0.121968149828     1.007825032230
         H           -4.404670025981     4.451712143355     2.710045149828     1.007825032230
         H           -4.976976025981     4.484736143355     1.030945149828     1.007825032230
         H           -4.057283025981     5.839349143355     1.681539149828     1.007825032230

  Charge       = 0
  Multiplicity = 1
  Basis Set: 6-311++G**
    Blend: 6-311++G**
  Basis Set: (6-311++G** AUX)
    Blend: AUG-CC-PVTZ-JKFIT

    Orbital Energies [Eh]
    ---------------------

    Doubly Occupied:

       1A    -20.524410     2A    -15.605668     3A    -15.580759
       4A    -15.578167     5A    -15.578096     6A    -15.577494
       7A    -15.575816     8A    -15.559916     9A    -11.368428
      10A    -11.364399    11A    -11.333196    12A    -11.315417
      13A    -11.314608    14A    -11.311587    15A    -11.308049
      16A    -11.307864    17A    -11.301447    18A    -11.294511
      19A    -11.294439    20A    -11.292314    21A    -11.286196
      22A    -11.284762    23A    -11.275051    24A    -11.265659
      25A    -11.265365    26A    -11.264388    27A    -11.263913
      28A    -11.259917    29A    -11.256739    30A    -11.256260
      31A    -11.253269    32A    -11.247720    33A    -11.239696
      34A    -11.237031    35A    -11.232211    36A    -11.231616
      37A    -11.218273    38A     -1.390998    39A     -1.347228
      40A     -1.270658    41A     -1.251759    42A     -1.251468
      43A     -1.239376    44A     -1.212786    45A     -1.205399
      46A     -1.169883    47A     -1.138235    48A     -1.111133
      49A     -1.073986    50A     -1.064795    51A     -1.044820
      52A     -1.037291    53A     -1.032417    54A     -1.004649
      55A     -1.004363    56A     -0.982863    57A     -0.945957
      58A     -0.930923    59A     -0.923228    60A     -0.901892
      61A     -0.870938    62A     -0.866822    63A     -0.854617
      64A     -0.851540    65A     -0.842563    66A     -0.837395
      67A     -0.823435    68A     -0.810504    69A     -0.778749
      70A     -0.752970    71A     -0.739676    72A     -0.733084
      73A     -0.718546    74A     -0.714696    75A     -0.710163
      76A     -0.686449    77A     -0.680769    78A     -0.667436
      79A     -0.665749    80A     -0.656913    81A     -0.655265
      82A     -0.649350    83A     -0.638278    84A     -0.637142
      85A     -0.625981    86A     -0.618154    87A     -0.610908
      88A     -0.608975    89A     -0.606502    90A     -0.603352
      91A     -0.600378    92A     -0.597136    93A     -0.593559
      94A     -0.587714    95A     -0.586704    96A     -0.582420
      97A     -0.579160    98A     -0.577972    99A     -0.569403
     100A     -0.548962   101A     -0.544984   102A     -0.544252
     103A     -0.540311   104A     -0.535420   105A     -0.530920
     106A     -0.523030   107A     -0.511907   108A     -0.508133
     109A     -0.506729   110A     -0.505067   111A     -0.504488
     112A     -0.499300   113A     -0.490156   114A     -0.468047
     115A     -0.459402   116A     -0.450005   117A     -0.436248
     118A     -0.432676   119A     -0.426429   120A     -0.416888
     121A     -0.415761   122A     -0.400902   123A     -0.398082
     124A     -0.385394   125A     -0.380820   126A     -0.354178
     127A     -0.349611   128A     -0.341324   129A     -0.317323
     130A     -0.315053   131A     -0.286844

  @DF-RHF Final Energy: -1572.30747632932480

   => Energetics <=

    Nuclear Repulsion Energy =           3561.7603076015579973
    One-Electron Energy =               -9221.3740477511109930
    Two-Electron Energy =                4087.3062638202277412
    Total Energy =                      -1572.3074763293247997

  Dipole Moment: [D]
     X:    -1.6528      Y:    -6.0153      Z:     0.5433     Total:     6.2618

  Basis Set: (6-311++G** AUX)
    Blend: AUG-CC-PVTZ-RI
	 Reference Energy          =   -1572.3074763293247997 [Eh]
	 Singles Energy            =      -0.0000000000000000 [Eh]
	 Same-Spin Energy          =      -1.4687491306238116 [Eh]
	 Opposite-Spin Energy      =      -4.0453000631439195 [Eh]
	 Correlation Energy        =      -5.5140491937677307 [Eh]
	 Total Energy              =   -1577.8215255230925322 [Eh]

	 ================> DF-SCS-MP2 Energies <==================
	-----------------------------------------------------------
	 SCS Same-Spin Scale       =       0.3333333333333333 [-]
	 SCS Opposite-Spin Scale   =       1.2000000000000000 [-]
	 SCS Same-Spin Energy      =      -0.4895830435412705 [Eh]
	 SCS Opposite-Spin Energy  =      -4.8543600757727035 [Eh]
	 SCS Correlation Energy    =      -5.3439431193139741 [Eh]
	 SCS Total Energy          =   -1577.6514194486387623 [Eh]
	-----------------------------------------------------------

*** Psi4 exiting successfully. Buy a developer a beer!
