 Gaussian 09, Revision A.02,
 Gaussian 09:  EM64L-G09RevA.02 11-Jun-2009

 --------------------------------------------------
 #P opt=(,maxcycle=400) wB97XD/6-31G* MaxDisk=100GB
 --------------------------------------------------

 -----------------------------------------------------------------
 MOLECULE0 Rotatable Bond Optimization on g2-node38.bme.utexas.edu
 -----------------------------------------------------------------
 Symbolic Z-matrix:
 Charge =  0 Multiplicity = 1

 SCF Done:  E(RwB97XD) =  -1581.44469245     A.U. after   16 cycles
 SCF Done:  E(RwB97XD) =  -1581.51987397     A.U. after   13 cycles
 SCF Done:  E(RwB97XD) =  -1581.63639187     A.U. after   14 cycles
 SCF Done:  E(RwB97XD) =  -1581.67382333     A.U. after   14 cycles
 SCF Done:  E(RwB97XD) =  -1581.72823073     A.U. after   16 cycles
 SCF Done:  E(RwB97XD) =  -1581.72901345     A.U. after   14 cycles
 SCF Done:  E(RwB97XD) =  -1581.74212253     A.U. after   13 cycles
 SCF Done:  E(RwB97XD) =  -1581.75505522     A.U. after   13 cycles
 SCF Done:  E(RwB97XD) =  -1581.75975932     A.U. after   14 cycles
 SCF Done:  E(RwB97XD) =  -1581.76088815     A.U. after   14 cycles
 SCF Done:  E(RwB97XD) =  -1581.76417900     A.U. after   12 cycles
 SCF Done:  E(RwB97XD) =  -1581.76411456     A.U. after   13 cycles
 SCF Done:  E(RwB97XD) =  -1581.76421408     A.U. after   12 cycles
 SCF Done:  E(RwB97XD) =  -1581.76422258     A.U. after   12 cycles
 SCF Done:  E(RwB97XD) =  -1581.76421994     A.U. after   12 cycles
 SCF Done:  E(RwB97XD) =  -1581.76422754     A.U. after   12 cycles
 SCF Done:  E(RwB97XD) =  -1581.76423077     A.U. after   11 cycles
 SCF Done:  E(RwB97XD) =  -1581.76423279     A.U. after    8 cycles
 SCF Done:  E(RwB97XD) =  -1581.76423340     A.U. after    7 cycles
 SCF Done:  E(RwB97XD) =  -1581.76423360     A.U. after    7 cycles
 Optimization completed.
    -- Stationary point found.

                         Standard orientation:
 ---------------------------------------------------------------------
 Center     Atomic      Atomic             Coordinates (Angstroms)
 Number     Number       Type             X           Y           Z
 ---------------------------------------------------------------------
      1          6           0        0.719281    4.656041   -0.587499
      2          6           0        2.042881    4.401036   -0.251102
      3          6           0        2.547732    3.112380   -0.417751
      4          6           0        1.678196    2.141817   -0.932964
      5          7           0        0.404847    2.368791   -1.249760
      6          6           0       -0.058428    3.609628   -1.071821
      7          6           0        3.929632    2.726311   -0.036847
      8          6           0        4.983442    3.627051    0.091094
      9          6           0        6.205119    3.086364    0.489829
     10          7           0        6.400373    1.795985    0.725667
     11          6           0        5.320029    1.008324    0.548975
     12          7           0        4.105046    1.422915    0.193014
     13          7           0        5.538513   -0.323598    0.769504
     14          6           0        4.688245   -1.425036    0.551473
     15          6           0        5.275236   -2.697681    0.406524
     16          6           0        4.427984   -3.774950    0.164655
     17          6           0        3.046345   -3.648963    0.045222
     18          6           0        2.487275   -2.382682    0.200217
     19          6           0        3.306094   -1.287521    0.479874
     20          7           0        1.116478   -2.095065    0.074397
     21          6           0        0.099267   -2.899612   -0.372335
     22          6           0       -1.203554   -2.180581   -0.581424
     23          6           0       -1.286799   -0.822784   -0.897276
     24          6           0       -2.528135   -0.219692   -1.069603
     25          6           0       -3.704263   -0.954780   -0.942860
     26          6           0       -3.616060   -2.318630   -0.646379
     27          6           0       -2.381315   -2.925580   -0.474637
     28          6           0       -5.052999   -0.299097   -1.149353
     29          7           0       -6.035654   -0.747284   -0.171697
     30          6           0       -7.409798   -0.376532   -0.508050
     31          6           0       -7.716229    1.104183   -0.232734
     32          7           0       -7.407530    1.509068    1.137525
     33          6           0       -8.390585    1.064702    2.109764
     34          6           0       -6.036414    1.131371    1.478684
     35          6           0       -5.728532   -0.347778    1.204650
     36          8           0        0.217094   -4.097905   -0.572309
     37          6           0        6.767996   -2.889309    0.494728
     38          1           0        0.290069    5.644233   -0.461729
     39          1           0        2.663847    5.191128    0.161182
     40          1           0        2.048720    1.133309   -1.096166
     41          1           0       -1.103060    3.771708   -1.326881
     42          1           0        4.880311    4.685090   -0.114858
     43          1           0        7.073509    3.728967    0.620825
     44          1           0        6.502889   -0.523461    0.988815
     45          1           0        4.868901   -4.761685    0.047574
     46          1           0        2.417637   -4.501546   -0.168534
     47          1           0        2.868644   -0.308595    0.608881
     48          1           0        0.865612   -1.142043    0.289954
     49          1           0       -0.401764   -0.209163   -1.045457
     50          1           0       -2.568605    0.839805   -1.310061
     51          1           0       -4.533467   -2.888561   -0.535342
     52          1           0       -2.305991   -3.985456   -0.254114
     53          1           0       -4.911561    0.796172   -1.178568
     54          1           0       -5.435290   -0.581325   -2.139273
     55          1           0       -7.595844   -0.617466   -1.561095
     56          1           0       -8.079118   -1.009526    0.089767
     57          1           0       -8.771236    1.320715   -0.436909
     58          1           0       -7.122025    1.733540   -0.909548
     59          1           0       -8.484595   -0.029586    2.224424
     60          1           0       -9.374419    1.454853    1.827536
     61          1           0       -8.136413    1.480475    3.090659
     62          1           0       -5.855593    1.368333    2.533462
     63          1           0       -5.359077    1.764023    0.888860
     64          1           0       -6.325254   -0.982157    1.872870
     65          1           0       -4.676229   -0.566449    1.411779
     66          1           0        7.164699   -2.620680    1.483415
     67          1           0        7.303339   -2.289230   -0.252227
     68          1           0        7.030242   -3.935856    0.320343
 ---------------------------------------------------------------------

 The electronic state is 1-A.
 Alpha  occ. eigenvalues --  -19.23157 -14.49129 -14.48280 -14.46604 -14.45982
 Alpha  occ. eigenvalues --  -14.45623 -14.43981 -14.43583 -10.41641 -10.39921
 Alpha  occ. eigenvalues --  -10.37509 -10.36239 -10.35180 -10.34893 -10.34526
 Alpha  occ. eigenvalues --  -10.34036 -10.33978 -10.33489 -10.32740 -10.32324
 Alpha  occ. eigenvalues --  -10.31759 -10.31458 -10.31351 -10.31233 -10.31031
 Alpha  occ. eigenvalues --  -10.30985 -10.30671 -10.30558 -10.30280 -10.30275
 Alpha  occ. eigenvalues --  -10.29955 -10.29786 -10.29727 -10.29440 -10.29335
 Alpha  occ. eigenvalues --  -10.28823 -10.28225  -1.13295  -1.12192  -1.06194
 Alpha  occ. eigenvalues --   -1.04438  -1.04368  -1.03418  -1.00607  -0.99923
 Alpha  occ. eigenvalues --   -0.95688  -0.94558  -0.92983  -0.89650  -0.87970
 Alpha  occ. eigenvalues --   -0.87275  -0.86222  -0.85511  -0.84125  -0.83659
 Alpha  occ. eigenvalues --   -0.81594  -0.79581  -0.78169  -0.77971  -0.76216
 Alpha  occ. eigenvalues --   -0.73737  -0.73442  -0.72822  -0.72523  -0.71148
 Alpha  occ. eigenvalues --   -0.69932  -0.69368  -0.67930  -0.66241  -0.65045
 Alpha  occ. eigenvalues --   -0.63795  -0.63203  -0.62023  -0.61690  -0.59965
 Alpha  occ. eigenvalues --   -0.58713  -0.58436  -0.57519  -0.56510  -0.55969
 Alpha  occ. eigenvalues --   -0.55707  -0.55216  -0.55115  -0.54966  -0.54203
 Alpha  occ. eigenvalues --   -0.53877  -0.53511  -0.53007  -0.52280  -0.52068
 Alpha  occ. eigenvalues --   -0.51680  -0.51422  -0.51133  -0.50850  -0.50614
 Alpha  occ. eigenvalues --   -0.50342  -0.49977  -0.49641  -0.49465  -0.48072
 Alpha  occ. eigenvalues --   -0.47668  -0.47140  -0.46761  -0.46490  -0.46050
 Alpha  occ. eigenvalues --   -0.45859  -0.45513  -0.44378  -0.43822  -0.43295
 Alpha  occ. eigenvalues --   -0.43169  -0.42749  -0.41927  -0.41848  -0.41525
 Alpha  occ. eigenvalues --   -0.41184  -0.40712  -0.39881  -0.38087  -0.37469
 Alpha  occ. eigenvalues --   -0.35661  -0.35149  -0.33892  -0.33274  -0.33181
 Alpha  occ. eigenvalues --   -0.32638  -0.31970  -0.31135  -0.29039  -0.27003
 Alpha  occ. eigenvalues --   -0.25680
 Alpha virt. eigenvalues --   -0.00249   0.03014   0.03660   0.04707   0.07083
 Alpha virt. eigenvalues --    0.07447   0.08503   0.10470   0.14824   0.15097
 Alpha virt. eigenvalues --    0.15584   0.16319   0.17435   0.17464   0.18662

 Mulliken atomic charges:
              1
     1  C   -0.198617
     2  C   -0.155447
     3  C    0.033869
     4  C    0.007622
     5  N   -0.435251
     6  C    0.031709
     7  C    0.297135
     8  C   -0.253896
     9  C    0.047957
    10  N   -0.492508
    11  C    0.708970
    12  N   -0.568224
    13  N   -0.795677
    14  C    0.287678
    15  C    0.120508
    16  C   -0.239977
    17  C   -0.190348
    18  C    0.354638
    19  C   -0.264112
    20  N   -0.766749
    21  C    0.597959
    22  C    0.018197
    23  C   -0.211453
    24  C   -0.228186
    25  C    0.114956
    26  C   -0.195470
    27  C   -0.183670
    28  C   -0.219587
    29  N   -0.401009
    30  C   -0.185389
    31  C   -0.187068
    32  N   -0.385143
    33  C   -0.350559
    34  C   -0.186542
    35  C   -0.193018
    36  O   -0.516831
    37  C   -0.607122
    38  H    0.186195
    39  H    0.185503
    40  H    0.201628
    41  H    0.181938
    42  H    0.180056
    43  H    0.188933
    44  H    0.368654
    45  H    0.160520
    46  H    0.216146
    47  H    0.193168
    48  H    0.358671
    49  H    0.186741
    50  H    0.165243
    51  H    0.183168
    52  H    0.196148
    53  H    0.136870
    54  H    0.178412
    55  H    0.158856
    56  H    0.163641
    57  H    0.158649
    58  H    0.160857
    59  H    0.136519
    60  H    0.168240
    61  H    0.168875
    62  H    0.159502
    63  H    0.158733
    64  H    0.162579
    65  H    0.175191
    66  H    0.177513
    67  H    0.183334
    68  H    0.190175
 Sum of Mulliken atomic charges =   0.00000

 Dipole moment (field-independent basis, Debye):
    X=              0.6173    Y=              6.3876    Z=              1.0064  Tot=              6.4958
 Quadrupole moment (field-independent basis, Debye-Ang):
   XX=           -182.4283   YY=           -204.7106   ZZ=           -218.5691
   XY=              7.6612   XZ=              1.9577   YZ=             -4.8110

 Normal termination of Gaussian 09 at Wed Mar 11 02:19:32 2020.
