                               Psi4 1.3.2 release

  ==> Input File <==

--------------------------------------------------------------------------
molecule {
0 1
 C   -6.078450    3.672772   -2.141578
 C   -6.081814    3.150834   -0.841561
 C   -5.371800    1.967541   -0.554649
 C   -4.683429    1.377610   -1.644266
 N   -4.670796    1.864743   -2.892218
 C   -5.357874    2.991473   -3.128190
 C   -5.327048    1.337894    0.814476
 C   -5.970031    1.836792    1.960863
 C   -5.797546    1.090340    3.132304
 N   -5.081392   -0.027362    3.212601
 C   -4.504619   -0.425052    2.061297
 N   -4.601147    0.206090    0.891871
 N   -3.772785   -1.580239    2.138766
 C   -2.966401   -2.217767    1.159780
 C   -3.566622   -3.145353    0.261675
 C   -2.725381   -3.747686   -0.685643
 C   -1.355302   -3.479567   -0.785689
 C   -0.784976   -2.560194    0.104001
 C   -1.597769   -1.942037    1.071474
 N    0.595751   -2.175020    0.127355
 C    1.651784   -2.563391   -0.665225
 C    3.031120   -2.016618   -0.350077
 C    3.448633   -1.641846    0.937756
 C    4.738301   -1.148642    1.149240
 C    5.661398   -1.029417    0.093232
 C    5.240497   -1.436741   -1.186836
 C    3.953938   -1.933287   -1.406572
 C    7.065823   -0.468062    0.322622
 N    7.285256    0.984348    0.203590
 C    6.748678    1.872441    1.258824
 C    5.358313    2.479908    0.942991
 N    5.277557    3.172429   -0.363430
 C    5.774774    4.552447   -0.408025
 C    5.770180    2.258619   -1.421942
 C    7.154040    1.622005   -1.126916
 O    1.511807   -3.318855   -1.613991
 C   -5.050548   -3.467094    0.288866
 H   -6.619137    4.582487   -2.385233
 H   -6.644224    3.682184   -0.077876
 H   -4.115001    0.463795   -1.493511
 H   -5.327388    3.359389   -4.152558
 H   -6.570471    2.738024    1.975683
 H   -6.264343    1.412498    4.062749
 H   -3.617960   -1.970264    3.057788
 H   -3.147208   -4.456866   -1.396640
 H   -0.744575   -3.963164   -1.538189
 H   -1.193953   -1.222377    1.770373
 H    0.806784   -1.438861    0.785805
 H    2.763942   -1.742992    1.776060
 H    5.027342   -0.854717    2.158255
 H    5.924336   -1.367744   -2.032749
 H    3.640829   -2.251660   -2.397724
 H    7.398247   -0.761299    1.328961
 H    7.750960   -0.953329   -0.387938
 H    6.779182    1.397233    2.198731
 H    7.728235    3.108429    1.352267
 H    5.041283    3.440108    2.002039
 H    4.466805    1.565181    0.955343
 H    6.855298    4.587809   -0.228971
 H    5.270143    5.161111    0.350925
 H    5.565231    4.997227   -1.387641
 H    5.778832    2.818886   -2.443326
 H    4.797513    1.175614   -1.528130
 H    8.179871    2.826002   -1.159858
 H    7.463308    0.918499   -1.928248
 H   -5.648526   -2.596203   -0.015467
 H   -5.385343   -3.758303    1.294249
 H   -5.322160   -4.291200   -0.385066
}
memory 20GB
set_num_threads(6)
psi4_io.set_default_path("/scratch/bdw2292")
set freeze_core True
E, wfn = energy('mp2/6-311++G**',return_wfn=True)
oeprop(wfn,"WIBERG_LOWDIN_INDICES")
clean()
--------------------------------------------------------------------------

    Molecular point group: c1

    Geometry (in Angstrom), charge = 0, multiplicity = 1:

       Center              X                  Y                   Z               Mass
    ------------   -----------------  -----------------  -----------------  -----------------
         C           -6.030017923784     3.750331538159    -2.164551626048    12.000000000000
         C           -6.033381923784     3.228393538159    -0.864534626048    12.000000000000
         C           -5.323367923784     2.045100538159    -0.577622626048    12.000000000000
         C           -4.634996923784     1.455169538159    -1.667239626048    12.000000000000
         N           -4.622363923784     1.942302538159    -2.915191626048    14.003074004430
         C           -5.309441923784     3.069032538159    -3.151163626048    12.000000000000
         C           -5.278615923784     1.415453538159     0.791502373952    12.000000000000
         C           -5.921598923784     1.914351538159     1.937889373952    12.000000000000
         C           -5.749113923784     1.167899538159     3.109330373952    12.000000000000
         N           -5.032959923784     0.050197538159     3.189627373952    14.003074004430
         C           -4.456186923784    -0.347492461841     2.038323373952    12.000000000000
         N           -4.552714923784     0.283649538159     0.868897373952    14.003074004430
         N           -3.724352923784    -1.502679461841     2.115792373952    14.003074004430
         C           -2.917968923784    -2.140207461841     1.136806373952    12.000000000000
         C           -3.518189923784    -3.067793461841     0.238701373952    12.000000000000
         C           -2.676948923784    -3.670126461841    -0.708616626048    12.000000000000
         C           -1.306869923784    -3.402007461841    -0.808662626048    12.000000000000
         C           -0.736543923784    -2.482634461841     0.081027373952    12.000000000000
         C           -1.549336923784    -1.864477461841     1.048500373952    12.000000000000
         N            0.644183076216    -2.097460461841     0.104381373952    14.003074004430
         C            1.700216076216    -2.485831461841    -0.688198626048    12.000000000000
         C            3.079552076216    -1.939058461841    -0.373050626048    12.000000000000
         C            3.497065076216    -1.564286461841     0.914782373952    12.000000000000
         C            4.786733076216    -1.071082461841     1.126266373952    12.000000000000
         C            5.709830076216    -0.951857461841     0.070258373952    12.000000000000
         C            5.288929076216    -1.359181461841    -1.209809626048    12.000000000000
         C            4.002370076216    -1.855727461841    -1.429545626048    12.000000000000
         C            7.114255076216    -0.390502461841     0.299648373952    12.000000000000
         N            7.333688076216     1.061907538159     0.180616373952    14.003074004430
         C            6.797110076216     1.950000538159     1.235850373952    12.000000000000
         C            5.406745076216     2.557467538159     0.920017373952    12.000000000000
         N            5.325989076216     3.249988538159    -0.386403626048    14.003074004430
         C            5.823206076216     4.630006538159    -0.430998626048    12.000000000000
         C            5.818612076216     2.336178538159    -1.444915626048    12.000000000000
         C            7.202472076216     1.699564538159    -1.149889626048    12.000000000000
         O            1.560239076216    -3.241295461841    -1.636964626048    15.994914619570
         C           -5.002115923784    -3.389534461841     0.265892373952    12.000000000000
         H           -6.570704923784     4.660046538159    -2.408206626048     1.007825032230
         H           -6.595791923784     3.759743538159    -0.100849626048     1.007825032230
         H           -4.066568923784     0.541354538159    -1.516484626048     1.007825032230
         H           -5.278955923784     3.436948538159    -4.175531626048     1.007825032230
         H           -6.522038923784     2.815583538159     1.952709373952     1.007825032230
         H           -6.215910923784     1.490057538159     4.039775373952     1.007825032230
         H           -3.569527923784    -1.892704461841     3.034814373952     1.007825032230
         H           -3.098775923784    -4.379306461841    -1.419613626048     1.007825032230
         H           -0.696142923784    -3.885604461841    -1.561162626048     1.007825032230
         H           -1.145520923784    -1.144817461841     1.747399373952     1.007825032230
         H            0.855216076216    -1.361301461841     0.762831373952     1.007825032230
         H            2.812374076216    -1.665432461841     1.753086373952     1.007825032230
         H            5.075774076216    -0.777157461841     2.135281373952     1.007825032230
         H            5.972768076216    -1.290184461841    -2.055722626048     1.007825032230
         H            3.689261076216    -2.174100461841    -2.420697626048     1.007825032230
         H            7.446679076216    -0.683739461841     1.305987373952     1.007825032230
         H            7.799392076216    -0.875769461841    -0.410911626048     1.007825032230
         H            6.827614076216     1.474792538159     2.175757373952     1.007825032230
         H            7.776667076216     3.185988538159     1.329293373952     1.007825032230
         H            5.089715076216     3.517667538159     1.979065373952     1.007825032230
         H            4.515237076216     1.642740538159     0.932369373952     1.007825032230
         H            6.903730076216     4.665368538159    -0.251944626048     1.007825032230
         H            5.318575076216     5.238670538159     0.327951373952     1.007825032230
         H            5.613663076216     5.074786538159    -1.410614626048     1.007825032230
         H            5.827264076216     2.896445538159    -2.466299626048     1.007825032230
         H            4.845945076216     1.253173538159    -1.551103626048     1.007825032230
         H            8.228303076216     2.903561538159    -1.182831626048     1.007825032230
         H            7.511740076216     0.996058538159    -1.951221626048     1.007825032230
         H           -5.600093923784    -2.518643461841    -0.038440626048     1.007825032230
         H           -5.336910923784    -3.680743461841     1.271275373952     1.007825032230
         H           -5.273727923784    -4.213640461841    -0.408039626048     1.007825032230

  Charge       = 0
  Multiplicity = 1
  Basis Set: 6-311++G**
    Blend: 6-311++G**
  Basis Set: (6-311++G** AUX)
    Blend: AUG-CC-PVTZ-JKFIT

    Orbital Energies [Eh]
    ---------------------

    Doubly Occupied:

       1A    -20.527249     2A    -15.609228     3A    -15.586145
       4A    -15.577215     5A    -15.570310     6A    -15.563314
       7A    -15.559424     8A    -15.558913     9A    -11.371425
      10A    -11.364485    11A    -11.324469    12A    -11.315973
      13A    -11.314727    14A    -11.307805    15A    -11.305474
      16A    -11.305042    17A    -11.297747    18A    -11.287209
      19A    -11.286500    20A    -11.285673    21A    -11.284169
      22A    -11.276757    23A    -11.267204    24A    -11.266323
      25A    -11.266237    26A    -11.266048    27A    -11.257501
      28A    -11.257168    29A    -11.253877    30A    -11.252362
      31A    -11.246960    32A    -11.246839    33A    -11.245536
      34A    -11.241970    35A    -11.238817    36A    -11.234993
      37A    -11.225048    38A     -1.394112    39A     -1.338409
      40A     -1.263057    41A     -1.255852    42A     -1.251173
      43A     -1.239977    44A     -1.204905    45A     -1.201143
      46A     -1.170972    47A     -1.140077    48A     -1.103805
      49A     -1.068556    50A     -1.063501    51A     -1.040092
      52A     -1.036711    53A     -1.033509    54A     -1.006275
      55A     -1.003650    56A     -0.982717    57A     -0.945156
      58A     -0.930151    59A     -0.915382    60A     -0.893100
      61A     -0.871862    62A     -0.860658    63A     -0.852518
      64A     -0.844895    65A     -0.842813    66A     -0.836725
      67A     -0.831486    68A     -0.809806    69A     -0.779107
      70A     -0.749077    71A     -0.746167    72A     -0.728633
      73A     -0.713856    74A     -0.708742    75A     -0.694746
      76A     -0.686824    77A     -0.672552    78A     -0.665605
      79A     -0.660294    80A     -0.657910    81A     -0.649862
      82A     -0.648598    83A     -0.644184    84A     -0.634800
      85A     -0.628731    86A     -0.623090    87A     -0.610390
      88A     -0.609342    89A     -0.604306    90A     -0.599870
      91A     -0.598260    92A     -0.597807    93A     -0.596123
      94A     -0.590323    95A     -0.586525    96A     -0.581457
      97A     -0.579182    98A     -0.570336    99A     -0.567528
     100A     -0.546465   101A     -0.542940   102A     -0.542763
     103A     -0.534523   104A     -0.531302   105A     -0.530862
     106A     -0.521794   107A     -0.513831   108A     -0.510260
     109A     -0.506789   110A     -0.505271   111A     -0.500002
     112A     -0.497094   113A     -0.485407   114A     -0.464461
     115A     -0.460928   116A     -0.439818   117A     -0.435958
     118A     -0.433051   119A     -0.427101   120A     -0.426666
     121A     -0.404440   122A     -0.396670   123A     -0.385992
     124A     -0.384560   125A     -0.355299   126A     -0.351297
     127A     -0.350212   128A     -0.340765   129A     -0.323245
     130A     -0.316048   131A     -0.302749

  @DF-RHF Final Energy: -1572.32863047701767

   => Energetics <=

    Nuclear Repulsion Energy =           3582.9685494475015730
    One-Electron Energy =               -9264.3304058555404481
    Two-Electron Energy =                4109.0332259310207519
    Total Energy =                      -1572.3286304770181232

  Dipole Moment: [D]
     X:    -1.0667      Y:     3.1009      Z:     3.1500     Total:     4.5471

  Basis Set: (6-311++G** AUX)
    Blend: AUG-CC-PVTZ-RI
	 Reference Energy          =   -1572.3286304770176685 [Eh]
	 Singles Energy            =      -0.0000000000000000 [Eh]
	 Same-Spin Energy          =      -1.4677713705744129 [Eh]
	 Opposite-Spin Energy      =      -4.0439275071966234 [Eh]
	 Correlation Energy        =      -5.5116988777710363 [Eh]
	 Total Energy              =   -1577.8403293547887642 [Eh]

	 ================> DF-SCS-MP2 Energies <==================
	-----------------------------------------------------------
	 SCS Same-Spin Scale       =       0.3333333333333333 [-]
	 SCS Opposite-Spin Scale   =       1.2000000000000000 [-]
	 SCS Same-Spin Energy      =      -0.4892571235248043 [Eh]
	 SCS Opposite-Spin Energy  =      -4.8527130086359476 [Eh]
	 SCS Correlation Energy    =      -5.3419701321607516 [Eh]
	 SCS Total Energy          =   -1577.6706006091783365 [Eh]
	-----------------------------------------------------------

*** Psi4 exiting successfully. Buy a developer a beer!
