                               Psi4 1.3.2 release

  ==> Input File <==

--------------------------------------------------------------------------
molecule {
0 1
 C   -1.457207    5.054181   -0.367849
 C   -2.765079    4.556836   -0.290524
 C   -2.981494    3.177283   -0.105980
 C   -1.816574    2.381375    0.022436
 N   -0.559157    2.837480   -0.046267
 C   -0.392337    4.154448   -0.244269
 C   -4.347750    2.542550   -0.031699
 C   -5.566480    3.238831    0.020428
 C   -6.717665    2.447493    0.116869
 N   -6.713942    1.116351    0.148067
 C   -5.501873    0.530193    0.074775
 N   -4.349827    1.197040   -0.012178
 N   -5.507651   -0.854116    0.091697
 C   -4.461575   -1.846428    0.131846
 C   -4.770167   -3.181943    0.532626
 C   -3.709745   -4.102809    0.577608
 C   -2.384768   -3.786879    0.255087
 C   -2.097513   -2.482711   -0.161124
 C   -3.139420   -1.543636   -0.218524
 N   -0.805664   -1.987415   -0.530905
 C    0.448847   -2.545115   -0.440218
 C    1.638666   -1.655716   -0.755301
 C    1.644928   -0.259830   -0.587122
 C    2.771861    0.490335   -0.930524
 C    3.947405   -0.121739   -1.405367
 C    3.929234   -1.520226   -1.566949
 C    2.805781   -2.278486   -1.229340
 C    5.175694    0.710792   -1.777627
 N    6.258988    0.878197   -0.793771
 C    7.112127   -0.283011   -0.452109
 C    6.648260   -1.080752    0.794625
 N    6.445418   -0.244900    2.002651
 C    7.644733    0.088346    2.780081
 C    5.546857    0.883028    1.656481
 C    6.000076    1.694422    0.414928
 O    0.621427   -3.716406   -0.139009
 C   -6.166964   -3.632532    0.925983
 H   -1.265941    6.112094   -0.521171
 H   -3.593184    5.253180   -0.397641
 H   -1.899580    1.316503    0.215759
 H    0.641588    4.492050   -0.296824
 H   -5.657890    4.318041    0.014060
 H   -7.712828    2.887304    0.176747
 H   -6.455432   -1.181875    0.201109
 H   -3.910910   -5.127272    0.888095
 H   -1.593134   -4.522864    0.318669
 H   -2.924709   -0.543392   -0.555844
 H   -0.816276   -1.041365   -0.884154
 H    0.768387    0.245909   -0.188241
 H    2.733339    1.572070   -0.802454
 H    4.811391   -2.031314   -1.951649
 H    2.814295   -3.360108   -1.338091
 H    5.626165    0.275198   -2.680781
 H    4.843995    1.724266   -2.044160
 H    7.234865   -0.988400   -1.380461
 H    8.457120    0.247270   -0.158187
 H    7.538750   -2.033986    1.076531
 H    5.514023   -1.678359    0.547284
 H    8.321995    0.727065    2.202092
 H    8.177546   -0.826363    3.064450
 H    7.364503    0.612873    3.700754
 H    5.427897    1.628409    2.647339
 H    4.234530    0.306968    1.391196
 H    7.258207    2.365541    0.759392
 H    5.206048    2.566210    0.169161
 H   -6.890829   -3.534940    0.104392
 H   -6.548901   -3.043026    1.764090
 H   -6.199538   -4.678694    1.241074
}
memory 20GB
set_num_threads(6)
psi4_io.set_default_path("/scratch/bdw2292")
set freeze_core True
E, wfn = energy('mp2/6-311++G**',return_wfn=True)
oeprop(wfn,"WIBERG_LOWDIN_INDICES")
clean()
--------------------------------------------------------------------------

    Molecular point group: c1

    Geometry (in Angstrom), charge = 0, multiplicity = 1:

       Center              X                  Y                   Z               Mass
    ------------   -----------------  -----------------  -----------------  -----------------
         C           -1.341572961769     5.047334552911    -0.347615829680    12.000000000000
         C           -2.649444961769     4.549989552911    -0.270290829680    12.000000000000
         C           -2.865859961769     3.170436552911    -0.085746829680    12.000000000000
         C           -1.700939961769     2.374528552911     0.042669170320    12.000000000000
         N           -0.443522961769     2.830633552911    -0.026033829680    14.003074004430
         C           -0.276702961769     4.147601552911    -0.224035829680    12.000000000000
         C           -4.232115961769     2.535703552911    -0.011465829680    12.000000000000
         C           -5.450845961769     3.231984552911     0.040661170320    12.000000000000
         C           -6.602030961769     2.440646552911     0.137102170320    12.000000000000
         N           -6.598307961769     1.109504552911     0.168300170320    14.003074004430
         C           -5.386238961769     0.523346552911     0.095008170320    12.000000000000
         N           -4.234192961769     1.190193552911     0.008055170320    14.003074004430
         N           -5.392016961769    -0.860962447089     0.111930170320    14.003074004430
         C           -4.345940961769    -1.853274447089     0.152079170320    12.000000000000
         C           -4.654532961769    -3.188789447089     0.552859170320    12.000000000000
         C           -3.594110961769    -4.109655447089     0.597841170320    12.000000000000
         C           -2.269133961769    -3.793725447089     0.275320170320    12.000000000000
         C           -1.981878961769    -2.489557447089    -0.140890829680    12.000000000000
         C           -3.023785961769    -1.550482447089    -0.198290829680    12.000000000000
         N           -0.690029961769    -1.994261447089    -0.510671829680    14.003074004430
         C            0.564481038231    -2.551961447089    -0.419984829680    12.000000000000
         C            1.754300038231    -1.662562447089    -0.735067829680    12.000000000000
         C            1.760562038231    -0.266676447089    -0.566888829680    12.000000000000
         C            2.887495038231     0.483488552911    -0.910290829680    12.000000000000
         C            4.063039038231    -0.128585447089    -1.385133829680    12.000000000000
         C            4.044868038231    -1.527072447089    -1.546715829680    12.000000000000
         C            2.921415038231    -2.285332447089    -1.209106829680    12.000000000000
         C            5.291328038231     0.703945552911    -1.757393829680    12.000000000000
         N            6.374622038231     0.871350552911    -0.773537829680    14.003074004430
         C            7.227761038231    -0.289857447089    -0.431875829680    12.000000000000
         C            6.763894038231    -1.087598447089     0.814858170320    12.000000000000
         N            6.561052038231    -0.251746447089     2.022884170320    14.003074004430
         C            7.760367038231     0.081499552911     2.800314170320    12.000000000000
         C            5.662491038231     0.876181552911     1.676714170320    12.000000000000
         C            6.115710038231     1.687575552911     0.435161170320    12.000000000000
         O            0.737061038231    -3.723252447089    -0.118775829680    15.994914619570
         C           -6.051329961769    -3.639378447089     0.946216170320    12.000000000000
         H           -1.150306961769     6.105247552911    -0.500937829680     1.007825032230
         H           -3.477549961769     5.246333552911    -0.377407829680     1.007825032230
         H           -1.783945961769     1.309656552911     0.235992170320     1.007825032230
         H            0.757222038231     4.485203552911    -0.276590829680     1.007825032230
         H           -5.542255961769     4.311194552911     0.034293170320     1.007825032230
         H           -7.597193961769     2.880457552911     0.196980170320     1.007825032230
         H           -6.339797961769    -1.188721447089     0.221342170320     1.007825032230
         H           -3.795275961769    -5.134118447089     0.908328170320     1.007825032230
         H           -1.477499961769    -4.529710447089     0.338902170320     1.007825032230
         H           -2.809074961769    -0.550238447089    -0.535610829680     1.007825032230
         H           -0.700641961769    -1.048211447089    -0.863920829680     1.007825032230
         H            0.884021038231     0.239062552911    -0.168007829680     1.007825032230
         H            2.848973038231     1.565223552911    -0.782220829680     1.007825032230
         H            4.927025038231    -2.038160447089    -1.931415829680     1.007825032230
         H            2.929929038231    -3.366954447089    -1.317857829680     1.007825032230
         H            5.741799038231     0.268351552911    -2.660547829680     1.007825032230
         H            4.959629038231     1.717419552911    -2.023926829680     1.007825032230
         H            7.350499038231    -0.995246447089    -1.360227829680     1.007825032230
         H            8.572754038231     0.240423552911    -0.137953829680     1.007825032230
         H            7.654384038231    -2.040832447089     1.096764170320     1.007825032230
         H            5.629657038231    -1.685205447089     0.567517170320     1.007825032230
         H            8.437629038231     0.720218552911     2.222325170320     1.007825032230
         H            8.293180038231    -0.833209447089     3.084683170320     1.007825032230
         H            7.480137038231     0.606026552911     3.720987170320     1.007825032230
         H            5.543531038231     1.621562552911     2.667572170320     1.007825032230
         H            4.350164038231     0.300121552911     1.411429170320     1.007825032230
         H            7.373841038231     2.358694552911     0.779625170320     1.007825032230
         H            5.321682038231     2.559363552911     0.189394170320     1.007825032230
         H           -6.775194961769    -3.541786447089     0.124625170320     1.007825032230
         H           -6.433266961769    -3.049872447089     1.784323170320     1.007825032230
         H           -6.083903961769    -4.685540447089     1.261307170320     1.007825032230

  Charge       = 0
  Multiplicity = 1
  Basis Set: 6-311++G**
    Blend: 6-311++G**
  Basis Set: (6-311++G** AUX)
    Blend: AUG-CC-PVTZ-JKFIT

    Orbital Energies [Eh]
    ---------------------

    Doubly Occupied:

       1A    -20.520094     2A    -15.603938     3A    -15.601494
       4A    -15.587598     5A    -15.573768     6A    -15.568827
       7A    -15.566578     8A    -15.551860     9A    -11.374720
      10A    -11.364120    11A    -11.334849    12A    -11.314110
      13A    -11.310415    14A    -11.306416    15A    -11.304849
      16A    -11.301944    17A    -11.301532    18A    -11.300888
      19A    -11.299171    20A    -11.292694    21A    -11.290124
      22A    -11.280928    23A    -11.276624    24A    -11.266456
      25A    -11.256564    26A    -11.256247    27A    -11.253317
      28A    -11.252884    29A    -11.248534    30A    -11.247038
      31A    -11.244773    32A    -11.244116    33A    -11.243934
      34A    -11.239450    35A    -11.233765    36A    -11.231053
      37A    -11.224517    38A     -1.385656    39A     -1.345321
      40A     -1.278974    41A     -1.250689    42A     -1.242406
      43A     -1.241535    44A     -1.209802    45A     -1.196683
      46A     -1.160536    47A     -1.139585    48A     -1.116516
      49A     -1.075634    50A     -1.058656    51A     -1.048623
      52A     -1.037456    53A     -1.022496    54A     -1.007719
      55A     -0.989097    56A     -0.974694    57A     -0.946218
      58A     -0.926985    59A     -0.926005    60A     -0.901114
      61A     -0.873161    62A     -0.864674    63A     -0.858352
      64A     -0.840740    65A     -0.833849    66A     -0.825220
      67A     -0.822420    68A     -0.804129    69A     -0.777915
      70A     -0.754775    71A     -0.739330    72A     -0.730792
      73A     -0.722328    74A     -0.699738    75A     -0.694951
      76A     -0.682888    77A     -0.671945    78A     -0.666415
      79A     -0.657969    80A     -0.655027    81A     -0.651859
      82A     -0.639778    83A     -0.636461    84A     -0.629328
      85A     -0.622432    86A     -0.616684    87A     -0.612224
      88A     -0.606955    89A     -0.603166    90A     -0.602731
      91A     -0.598640    92A     -0.595821    93A     -0.591621
      94A     -0.588551    95A     -0.581554    96A     -0.580538
      97A     -0.578167    98A     -0.573289    99A     -0.563158
     100A     -0.561988   101A     -0.547898   102A     -0.545047
     103A     -0.528579   104A     -0.524797   105A     -0.522157
     106A     -0.520748   107A     -0.513309   108A     -0.508663
     109A     -0.506234   110A     -0.505164   111A     -0.501000
     112A     -0.492891   113A     -0.485071   114A     -0.480837
     115A     -0.454461   116A     -0.452025   117A     -0.443385
     118A     -0.433181   119A     -0.427263   120A     -0.425055
     121A     -0.414497   122A     -0.406584   123A     -0.400798
     124A     -0.379243   125A     -0.373981   126A     -0.346674
     127A     -0.344789   128A     -0.340291   129A     -0.314947
     130A     -0.310417   131A     -0.289947

  @DF-RHF Final Energy: -1572.36537770276050

   => Energetics <=

    Nuclear Repulsion Energy =           3688.4312121441262207
    One-Electron Energy =               -9475.3850265739565657
    Two-Electron Energy =                4214.5884367270700750
    Total Energy =                      -1572.3653777027602700

  Dipole Moment: [D]
     X:    -2.8662      Y:     6.6449      Z:    -1.1685     Total:     7.3305

  Basis Set: (6-311++G** AUX)
    Blend: AUG-CC-PVTZ-RI
	 Reference Energy          =   -1572.3653777027604974 [Eh]
	 Singles Energy            =      -0.0000000000000000 [Eh]
	 Same-Spin Energy          =      -1.4705231019352436 [Eh]
	 Opposite-Spin Energy      =      -4.0469433697633663 [Eh]
	 Correlation Energy        =      -5.5174664716986097 [Eh]
	 Total Energy              =   -1577.8828441744590236 [Eh]

	 ================> DF-SCS-MP2 Energies <==================
	-----------------------------------------------------------
	 SCS Same-Spin Scale       =       0.3333333333333333 [-]
	 SCS Opposite-Spin Scale   =       1.2000000000000000 [-]
	 SCS Same-Spin Energy      =      -0.4901743673117478 [Eh]
	 SCS Opposite-Spin Energy  =      -4.8563320437160398 [Eh]
	 SCS Correlation Energy    =      -5.3465064110277876 [Eh]
	 SCS Total Energy          =   -1577.7118841137883010 [Eh]
	-----------------------------------------------------------

*** Psi4 exiting successfully. Buy a developer a beer!
