                               Psi4 1.3.2 release

  ==> Input File <==

--------------------------------------------------------------------------
molecule {
0 1
 C    0.147055    4.497367   -0.879701
 C    1.495103    4.419899   -0.503393
 C    2.133449    3.166383   -0.434611
 C    1.340940    2.049476   -0.797546
 N    0.053394    2.102956   -1.161705
 C   -0.528462    3.312032   -1.193086
 C    3.568990    2.974296   -0.014037
 C    4.502513    4.000927    0.202871
 C    5.790085    3.587023    0.567663
 N    6.155575    2.315911    0.725034
 C    5.190781    1.398255    0.513966
 N    3.940337    1.693173    0.157182
 N    5.564579    0.078334    0.693048
 C    4.886066   -1.171763    0.453525
 C    5.644360   -2.370016    0.287689
 C    4.931033   -3.553254    0.029726
 C    3.536525   -3.619377   -0.078972
 C    2.801635   -2.444389    0.110809
 C    3.489249   -1.251374    0.383198
 N    1.376784   -2.322036    0.031854
 C    0.397186   -3.209012   -0.353288
 C   -1.011500   -2.664097   -0.515354
 C   -1.298432   -1.333539   -0.867352
 C   -2.619909   -0.888536   -0.941709
 C   -3.704427   -1.749823   -0.689145
 C   -3.404658   -3.095756   -0.401549
 C   -2.085191   -3.549836   -0.322477
 C   -5.146466   -1.239498   -0.762944
 N   -5.406453    0.093874   -0.189584
 C   -5.468721    0.200203    1.283123
 C   -6.897561    0.002616    1.850531
 N   -7.917324    0.893463    1.241749
 C   -8.005562    2.250814    1.794435
 C   -7.837940    0.787520   -0.237768
 C   -6.411172    0.983534   -0.810462
 O    0.628114   -4.393631   -0.544092
 C    7.161797   -2.408601    0.354885
 H   -0.369549    5.451446   -0.926770
 H    2.017883    5.337967   -0.246396
 H    1.772999    1.053712   -0.819010
 H   -1.576280    3.319752   -1.490166
 H    4.291434    5.056699    0.084183
 H    6.592871    4.301798    0.747189
 H    6.548065    0.034782    0.913592
 H    5.481797   -4.482835   -0.108609
 H    3.025566   -4.547872   -0.301399
 H    2.924979   -0.349099    0.551461
 H    1.033958   -1.397522    0.250357
 H   -0.489191   -0.637716   -1.076129
 H   -2.801577    0.154582   -1.196761
 H   -4.212211   -3.806508   -0.228333
 H   -1.868888   -4.590595   -0.093727
 H   -5.465448   -1.170701   -1.811179
 H   -5.785427   -2.003757   -0.300245
 H   -4.583182   -0.742600    1.865433
 H   -5.005134    1.469946    1.645606
 H   -6.908494    0.138424    3.046657
 H   -7.321164   -1.390165    1.559285
 H   -7.086501    2.814426    1.596480
 H   -8.167388    2.208576    2.877739
 H   -8.851788    2.787072    1.349727
 H   -8.607627    1.558998   -0.732829
 H   -8.285899   -0.580616   -0.595533
 H   -6.005740    2.338543   -0.569662
 H   -6.417929    0.809417   -2.182331
 H    7.552050   -2.075906    1.327421
 H    7.604541   -1.762718   -0.408576
 H    7.566208   -3.410318    0.188148
}
memory 20GB
set_num_threads(6)
psi4_io.set_default_path("/scratch/bdw2292")
set freeze_core True
E, wfn = energy('mp2/6-311++G**',return_wfn=True)
oeprop(wfn,"WIBERG_LOWDIN_INDICES")
clean()
--------------------------------------------------------------------------

    Molecular point group: c1

    Geometry (in Angstrom), charge = 0, multiplicity = 1:

       Center              X                  Y                   Z               Mass
    ------------   -----------------  -----------------  -----------------  -----------------
         C            0.045243904970     4.512309268860    -0.866666068042    12.000000000000
         C            1.393291904970     4.434841268860    -0.490358068042    12.000000000000
         C            2.031637904970     3.181325268860    -0.421576068042    12.000000000000
         C            1.239128904970     2.064418268860    -0.784511068042    12.000000000000
         N           -0.048417095030     2.117898268860    -1.148670068042    14.003074004430
         C           -0.630273095030     3.326974268860    -1.180051068042    12.000000000000
         C            3.467178904970     2.989238268860    -0.001002068042    12.000000000000
         C            4.400701904970     4.015869268860     0.215905931958    12.000000000000
         C            5.688273904970     3.601965268860     0.580697931958    12.000000000000
         N            6.053763904970     2.330853268860     0.738068931958    14.003074004430
         C            5.088969904970     1.413197268860     0.527000931958    12.000000000000
         N            3.838525904970     1.708115268860     0.170216931958    14.003074004430
         N            5.462767904970     0.093276268860     0.706082931958    14.003074004430
         C            4.784254904970    -1.156820731140     0.466559931958    12.000000000000
         C            5.542548904970    -2.355073731140     0.300723931958    12.000000000000
         C            4.829221904970    -3.538311731140     0.042760931958    12.000000000000
         C            3.434713904970    -3.604434731140    -0.065937068042    12.000000000000
         C            2.699823904970    -2.429446731140     0.123843931958    12.000000000000
         C            3.387437904970    -1.236431731140     0.396232931958    12.000000000000
         N            1.274972904970    -2.307093731140     0.044888931958    14.003074004430
         C            0.295374904970    -3.194069731140    -0.340253068042    12.000000000000
         C           -1.113311095030    -2.649154731140    -0.502319068042    12.000000000000
         C           -1.400243095030    -1.318596731140    -0.854317068042    12.000000000000
         C           -2.721720095030    -0.873593731140    -0.928674068042    12.000000000000
         C           -3.806238095030    -1.734880731140    -0.676110068042    12.000000000000
         C           -3.506469095030    -3.080813731140    -0.388514068042    12.000000000000
         C           -2.187002095030    -3.534893731140    -0.309442068042    12.000000000000
         C           -5.248277095030    -1.224555731140    -0.749909068042    12.000000000000
         N           -5.508264095030     0.108816268860    -0.176549068042    14.003074004430
         C           -5.570532095030     0.215145268860     1.296157931958    12.000000000000
         C           -6.999372095030     0.017558268860     1.863565931958    12.000000000000
         N           -8.019135095030     0.908405268860     1.254783931958    14.003074004430
         C           -8.107373095030     2.265756268860     1.807469931958    12.000000000000
         C           -7.939751095030     0.802462268860    -0.224733068042    12.000000000000
         C           -6.512983095030     0.998476268860    -0.797427068042    12.000000000000
         O            0.526302904970    -4.378688731140    -0.531057068042    15.994914619570
         C            7.059985904970    -2.393658731140     0.367919931958    12.000000000000
         H           -0.471360095030     5.466388268860    -0.913735068042     1.007825032230
         H            1.916071904970     5.352909268860    -0.233361068042     1.007825032230
         H            1.671187904970     1.068654268860    -0.805975068042     1.007825032230
         H           -1.678091095030     3.334694268860    -1.477131068042     1.007825032230
         H            4.189622904970     5.071641268860     0.097217931958     1.007825032230
         H            6.491059904970     4.316740268860     0.760223931958     1.007825032230
         H            6.446253904970     0.049724268860     0.926626931958     1.007825032230
         H            5.379985904970    -4.467892731140    -0.095574068042     1.007825032230
         H            2.923754904970    -4.532929731140    -0.288364068042     1.007825032230
         H            2.823167904970    -0.334156731140     0.564495931958     1.007825032230
         H            0.932146904970    -1.382579731140     0.263391931958     1.007825032230
         H           -0.591002095030    -0.622773731140    -1.063094068042     1.007825032230
         H           -2.903388095030     0.169524268860    -1.183726068042     1.007825032230
         H           -4.314022095030    -3.791565731140    -0.215298068042     1.007825032230
         H           -1.970699095030    -4.575652731140    -0.080692068042     1.007825032230
         H           -5.567259095030    -1.155758731140    -1.798144068042     1.007825032230
         H           -5.887238095030    -1.988814731140    -0.287210068042     1.007825032230
         H           -4.684993095030    -0.727657731140     1.878467931958     1.007825032230
         H           -5.106945095030     1.484888268860     1.658640931958     1.007825032230
         H           -7.010305095030     0.153366268860     3.059691931958     1.007825032230
         H           -7.422975095030    -1.375222731140     1.572319931958     1.007825032230
         H           -7.188312095030     2.829368268860     1.609514931958     1.007825032230
         H           -8.269199095030     2.223518268860     2.890773931958     1.007825032230
         H           -8.953599095030     2.802014268860     1.362761931958     1.007825032230
         H           -8.709438095030     1.573940268860    -0.719794068042     1.007825032230
         H           -8.387710095030    -0.565673731140    -0.582498068042     1.007825032230
         H           -6.107551095030     2.353485268860    -0.556627068042     1.007825032230
         H           -6.519740095030     0.824359268860    -2.169296068042     1.007825032230
         H            7.450238904970    -2.060963731140     1.340455931958     1.007825032230
         H            7.502729904970    -1.747775731140    -0.395541068042     1.007825032230
         H            7.464396904970    -3.395375731140     0.201182931958     1.007825032230

  Charge       = 0
  Multiplicity = 1
  Basis Set: 6-311++G**
    Blend: 6-311++G**
  Basis Set: (6-311++G** AUX)
    Blend: AUG-CC-PVTZ-JKFIT

    Orbital Energies [Eh]
    ---------------------

    Doubly Occupied:

       1A    -20.516971     2A    -15.602265     3A    -15.598393
       4A    -15.584667     5A    -15.572342     6A    -15.569566
       7A    -15.568510     8A    -15.566465     9A    -11.372759
      10A    -11.360671    11A    -11.334107    12A    -11.332921
      13A    -11.327358    14A    -11.315899    15A    -11.314807
      16A    -11.312811    17A    -11.299452    18A    -11.299285
      19A    -11.298407    20A    -11.290904    21A    -11.287970
      22A    -11.278606    23A    -11.274637    24A    -11.264172
      25A    -11.259455    26A    -11.254903    27A    -11.251368
      28A    -11.250692    29A    -11.246087    30A    -11.245582
      31A    -11.243922    32A    -11.240594    33A    -11.238136
      34A    -11.235800    35A    -11.232654    36A    -11.229311
      37A    -11.223292    38A     -1.382019    39A     -1.343997
      40A     -1.276425    41A     -1.251040    42A     -1.248372
      43A     -1.239576    44A     -1.208314    45A     -1.205705
      46A     -1.155494    47A     -1.137675    48A     -1.114229
      49A     -1.073539    50A     -1.055956    51A     -1.046457
      52A     -1.035566    53A     -1.015519    54A     -1.006087
      55A     -0.994212    56A     -0.976319    57A     -0.947039
      58A     -0.929976    59A     -0.925000    60A     -0.899245
      61A     -0.870972    62A     -0.862009    63A     -0.856373
      64A     -0.837110    65A     -0.831769    66A     -0.826874
      67A     -0.824114    68A     -0.801916    69A     -0.774808
      70A     -0.752410    71A     -0.736350    72A     -0.727621
      73A     -0.719895    74A     -0.702002    75A     -0.691287
      76A     -0.680900    77A     -0.666865    78A     -0.664057
      79A     -0.655858    80A     -0.650488    81A     -0.649453
      82A     -0.641856    83A     -0.633856    84A     -0.626493
      85A     -0.624923    86A     -0.619069    87A     -0.610837
      88A     -0.606382    89A     -0.604521    90A     -0.600660
      91A     -0.598961    92A     -0.593730    93A     -0.590739
      94A     -0.586750    95A     -0.583302    96A     -0.578677
      97A     -0.576526    98A     -0.572319    99A     -0.561182
     100A     -0.559602   101A     -0.546488   102A     -0.542733
     103A     -0.542150   104A     -0.528064   105A     -0.521351
     106A     -0.519736   107A     -0.512491   108A     -0.511177
     109A     -0.506996   110A     -0.500067   111A     -0.494941
     112A     -0.489085   113A     -0.482820   114A     -0.475778
     115A     -0.451915   116A     -0.450146   117A     -0.440611
     118A     -0.435627   119A     -0.424189   120A     -0.422948
     121A     -0.412618   122A     -0.408885   123A     -0.398487
     124A     -0.390255   125A     -0.371772   126A     -0.344572
     127A     -0.338840   128A     -0.332128   129A     -0.323835
     130A     -0.312214   131A     -0.288738

  @DF-RHF Final Energy: -1572.31153263799411

   => Energetics <=

    Nuclear Repulsion Energy =           3652.9112522846357933
    One-Electron Energy =               -9404.3682256876199972
    Two-Electron Energy =                4179.1454407649907807
    Total Energy =                      -1572.3115326379938779

  Dipole Moment: [D]
     X:    -0.4079      Y:     7.9062      Z:     0.7350     Total:     7.9507

  Basis Set: (6-311++G** AUX)
    Blend: AUG-CC-PVTZ-RI
	 Reference Energy          =   -1572.3115326379941052 [Eh]
	 Singles Energy            =      -0.0000000000000000 [Eh]
	 Same-Spin Energy          =      -1.4688269611391196 [Eh]
	 Opposite-Spin Energy      =      -4.0483316690622262 [Eh]
	 Correlation Energy        =      -5.5171586302013456 [Eh]
	 Total Energy              =   -1577.8286912681953709 [Eh]

	 ================> DF-SCS-MP2 Energies <==================
	-----------------------------------------------------------
	 SCS Same-Spin Scale       =       0.3333333333333333 [-]
	 SCS Opposite-Spin Scale   =       1.2000000000000000 [-]
	 SCS Same-Spin Energy      =      -0.4896089870463732 [Eh]
	 SCS Opposite-Spin Energy  =      -4.8579980028746714 [Eh]
	 SCS Correlation Energy    =      -5.3476069899210446 [Eh]
	 SCS Total Energy          =   -1577.6591396279152377 [Eh]
	-----------------------------------------------------------

*** Psi4 exiting successfully. Buy a developer a beer!
