                               Psi4 1.3.2 release

  ==> Input File <==

--------------------------------------------------------------------------
molecule {
0 1
 C   -8.012791   -3.567582   -1.345661
 C   -6.822708   -3.259572   -0.673067
 C   -6.450265   -1.914058   -0.478642
 C   -7.341348   -0.943979   -1.000980
 N   -8.481804   -1.221610   -1.646372
 C   -8.804591   -2.512384   -1.811011
 C   -5.190727   -1.492956    0.235922
 C   -4.236617   -2.366642    0.785719
 C   -3.139598   -1.759451    1.407056
 N   -2.959738   -0.444646    1.495907
 C   -3.930679    0.311800    0.945750
 N   -5.015098   -0.160698    0.330378
 N   -3.760633    1.671055    1.042881
 C   -2.642130    2.545202    0.808008
 C   -2.825776    3.953216    0.962474
 C   -1.716835    4.775715    0.709301
 C   -0.460457    4.291906    0.331585
 C   -0.288799    2.909037    0.204204
 C   -1.382156    2.055128    0.436183
 N    0.934214    2.260385   -0.170188
 C    2.203992    2.764105   -0.338082
 C    3.300898    1.808873   -0.766488
 C    3.081310    0.692657   -1.590141
 C    4.138913   -0.153464   -1.931430
 C    5.451228    0.095418   -1.486828
 C    5.663410    1.237189   -0.691069
 C    4.611370    2.086920   -0.342875
 C    6.599762   -0.855132   -1.829266
 N    6.856481   -2.007716   -0.946684
 C    5.906841   -3.143429   -0.959839
 C    4.805538   -3.074403    0.129446
 N    5.319435   -2.887060    1.506229
 C    5.789277   -4.088792    2.204679
 C    6.233396   -1.720507    1.516798
 C    7.340460   -1.756080    0.430899
 O    2.475196    3.937400   -0.137985
 C   -4.143480    4.592089    1.367416
 H   -8.320025   -4.596808   -1.506208
 H   -6.211271   -4.082531   -0.311497
 H   -7.113294    0.111904   -0.889398
 H   -9.737159   -2.704191   -2.339389
 H   -4.311789   -3.446595    0.751080
 H   -2.356665   -2.368555    1.858108
 H   -4.634472    2.101868    1.306109
 H   -1.818983    5.855615    0.810891
 H    0.368677    4.965315    0.153534
 H   -1.260263    0.984141    0.348817
 H    0.869048    1.253373   -0.213145
 H    2.079659    0.487400   -1.959464
 H    3.933167   -1.023054   -2.555773
 H    6.663716    1.468449   -0.325400
 H    4.784444    2.966410    0.272163
 H    6.432895   -1.254488   -2.840332
 H    7.531733   -0.273048   -1.871260
 H    5.512756   -3.292275   -1.928719
 H    6.744753   -4.437875   -0.617739
 H    4.053882   -4.338565    0.077221
 H    4.022548   -2.156421   -0.107652
 H    6.672857   -4.510676    1.712648
 H    4.999023   -4.847831    2.224512
 H    6.046248   -3.846073    3.242171
 H    6.798674   -1.616603    2.723587
 H    5.424406   -0.545717    1.300901
 H    8.261988   -2.985320    0.821218
 H    7.967613   -0.881239    0.461145
 H   -4.476096    4.235329    2.352396
 H   -4.939191    4.362069    0.644686
 H   -4.087643    5.687413    1.434294
}
memory 20GB
set_num_threads(6)
psi4_io.set_default_path("/scratch/bdw2292")
set freeze_core True
E, wfn = energy('mp2/6-311++G**',return_wfn=True)
oeprop(wfn,"WIBERG_LOWDIN_INDICES")
clean()
--------------------------------------------------------------------------

    Molecular point group: c1

    Geometry (in Angstrom), charge = 0, multiplicity = 1:

       Center              X                  Y                   Z               Mass
    ------------   -----------------  -----------------  -----------------  -----------------
         C           -7.917772805861    -3.614536026827    -1.329842950337    12.000000000000
         C           -6.727689805861    -3.306526026827    -0.657248950337    12.000000000000
         C           -6.355246805861    -1.961012026827    -0.462823950337    12.000000000000
         C           -7.246329805861    -0.990933026827    -0.985161950337    12.000000000000
         N           -8.386785805861    -1.268564026827    -1.630553950337    14.003074004430
         C           -8.709572805861    -2.559338026827    -1.795192950337    12.000000000000
         C           -5.095708805861    -1.539910026827     0.251740049663    12.000000000000
         C           -4.141598805861    -2.413596026827     0.801537049663    12.000000000000
         C           -3.044579805861    -1.806405026827     1.422874049663    12.000000000000
         N           -2.864719805861    -0.491600026827     1.511725049663    14.003074004430
         C           -3.835660805861     0.264845973173     0.961568049663    12.000000000000
         N           -4.920079805861    -0.207652026827     0.346196049663    14.003074004430
         N           -3.665614805861     1.624100973173     1.058699049663    14.003074004430
         C           -2.547111805861     2.498247973173     0.823826049663    12.000000000000
         C           -2.730757805861     3.906261973173     0.978292049663    12.000000000000
         C           -1.621816805861     4.728760973173     0.725119049663    12.000000000000
         C           -0.365438805861     4.244951973173     0.347403049663    12.000000000000
         C           -0.193780805861     2.862082973173     0.220022049663    12.000000000000
         C           -1.287137805861     2.008173973173     0.452001049663    12.000000000000
         N            1.029232194139     2.213430973173    -0.154369950337    14.003074004430
         C            2.299010194139     2.717150973173    -0.322263950337    12.000000000000
         C            3.395916194139     1.761918973173    -0.750669950337    12.000000000000
         C            3.176328194139     0.645702973173    -1.574322950337    12.000000000000
         C            4.233931194139    -0.200418026827    -1.915611950337    12.000000000000
         C            5.546246194139     0.048463973173    -1.471009950337    12.000000000000
         C            5.758428194139     1.190234973173    -0.675250950337    12.000000000000
         C            4.706388194139     2.039965973173    -0.327056950337    12.000000000000
         C            6.694780194139    -0.902086026827    -1.813447950337    12.000000000000
         N            6.951499194139    -2.054670026827    -0.930865950337    14.003074004430
         C            6.001859194139    -3.190383026827    -0.944020950337    12.000000000000
         C            4.900556194139    -3.121357026827     0.145264049663    12.000000000000
         N            5.414453194139    -2.934014026827     1.522047049663    14.003074004430
         C            5.884295194139    -4.135746026827     2.220497049663    12.000000000000
         C            6.328414194139    -1.767461026827     1.532616049663    12.000000000000
         C            7.435478194139    -1.803034026827     0.446717049663    12.000000000000
         O            2.570214194139     3.890445973173    -0.122166950337    15.994914619570
         C           -4.048461805861     4.545134973173     1.383234049663    12.000000000000
         H           -8.225006805861    -4.643762026827    -1.490389950337     1.007825032230
         H           -6.116252805861    -4.129485026827    -0.295678950337     1.007825032230
         H           -7.018275805861     0.064949973173    -0.873579950337     1.007825032230
         H           -9.642140805861    -2.751145026827    -2.323570950337     1.007825032230
         H           -4.216770805861    -3.493549026827     0.766898049663     1.007825032230
         H           -2.261646805861    -2.415509026827     1.873926049663     1.007825032230
         H           -4.539453805861     2.054913973173     1.321927049663     1.007825032230
         H           -1.723964805861     5.808660973173     0.826709049663     1.007825032230
         H            0.463695194139     4.918360973173     0.169352049663     1.007825032230
         H           -1.165244805861     0.937186973173     0.364635049663     1.007825032230
         H            0.964066194139     1.206418973173    -0.197326950337     1.007825032230
         H            2.174677194139     0.440445973173    -1.943645950337     1.007825032230
         H            4.028185194139    -1.070008026827    -2.539954950337     1.007825032230
         H            6.758734194139     1.421494973173    -0.309581950337     1.007825032230
         H            4.879462194139     2.919455973173     0.287981049663     1.007825032230
         H            6.527913194139    -1.301442026827    -2.824513950337     1.007825032230
         H            7.626751194139    -0.320002026827    -1.855441950337     1.007825032230
         H            5.607774194139    -3.339229026827    -1.912900950337     1.007825032230
         H            6.839771194139    -4.484829026827    -0.601920950337     1.007825032230
         H            4.148900194139    -4.385519026827     0.093039049663     1.007825032230
         H            4.117566194139    -2.203375026827    -0.091833950337     1.007825032230
         H            6.767875194139    -4.557630026827     1.728466049663     1.007825032230
         H            5.094041194139    -4.894785026827     2.240330049663     1.007825032230
         H            6.141266194139    -3.893027026827     3.257989049663     1.007825032230
         H            6.893692194139    -1.663557026827     2.739405049663     1.007825032230
         H            5.519424194139    -0.592671026827     1.316719049663     1.007825032230
         H            8.357006194139    -3.032274026827     0.837036049663     1.007825032230
         H            8.062631194139    -0.928193026827     0.476963049663     1.007825032230
         H           -4.381077805861     4.188374973173     2.368214049663     1.007825032230
         H           -4.844172805861     4.315114973173     0.660504049663     1.007825032230
         H           -3.992624805861     5.640458973173     1.450112049663     1.007825032230

  Charge       = 0
  Multiplicity = 1
  Basis Set: 6-311++G**
    Blend: 6-311++G**
  Basis Set: (6-311++G** AUX)
    Blend: AUG-CC-PVTZ-JKFIT

    Orbital Energies [Eh]
    ---------------------

    Doubly Occupied:

       1A    -20.525511     2A    -15.606393     3A    -15.589722
       4A    -15.578339     5A    -15.577358     6A    -15.575365
       7A    -15.573017     8A    -15.560952     9A    -11.369450
      10A    -11.369234    11A    -11.332828    12A    -11.320892
      13A    -11.314714    14A    -11.312511    15A    -11.311355
      16A    -11.309097    17A    -11.303000    18A    -11.294660
      19A    -11.293671    20A    -11.291557    21A    -11.287167
      22A    -11.283732    23A    -11.273893    24A    -11.266606
      25A    -11.266342    26A    -11.265394    27A    -11.258924
      28A    -11.257672    29A    -11.257314    30A    -11.256410
      31A    -11.254260    32A    -11.246983    33A    -11.243765
      34A    -11.238489    35A    -11.234005    36A    -11.232698
      37A    -11.221617    38A     -1.391870    39A     -1.345371
      40A     -1.269962    41A     -1.252791    42A     -1.252414
      43A     -1.240600    44A     -1.210046    45A     -1.206012
      46A     -1.170980    47A     -1.139915    48A     -1.110181
      49A     -1.073237    50A     -1.065558    51A     -1.043931
      52A     -1.038324    53A     -1.033600    54A     -1.006580
      55A     -1.003778    56A     -0.983457    57A     -0.947332
      58A     -0.931797    59A     -0.921468    60A     -0.901731
      61A     -0.871738    62A     -0.866254    63A     -0.855576
      64A     -0.851063    65A     -0.839110    66A     -0.838188
      67A     -0.823789    68A     -0.811009    69A     -0.779275
      70A     -0.754192    71A     -0.739274    72A     -0.734326
      73A     -0.718024    74A     -0.712068    75A     -0.707350
      76A     -0.686334    77A     -0.678433    78A     -0.667525
      79A     -0.665351    80A     -0.655982    81A     -0.654239
      82A     -0.650966    83A     -0.639279    84A     -0.637379
      85A     -0.626515    86A     -0.618802    87A     -0.612146
      88A     -0.609125    89A     -0.606596    90A     -0.604290
      91A     -0.600481    92A     -0.594267    93A     -0.589184
      94A     -0.587122    95A     -0.585856    96A     -0.583138
      97A     -0.581310    98A     -0.578438    99A     -0.565723
     100A     -0.551335   101A     -0.547309   102A     -0.547081
     103A     -0.538751   104A     -0.536688   105A     -0.529616
     106A     -0.524561   107A     -0.512910   108A     -0.510829
     109A     -0.509890   110A     -0.507492   111A     -0.505555
     112A     -0.500974   113A     -0.487120   114A     -0.477001
     115A     -0.450352   116A     -0.448815   117A     -0.434774
     118A     -0.434053   119A     -0.428539   120A     -0.424258
     121A     -0.413688   122A     -0.398455   123A     -0.396119
     124A     -0.386499   125A     -0.375297   126A     -0.355083
     127A     -0.350618   128A     -0.340444   129A     -0.317936
     130A     -0.314921   131A     -0.288330

  @DF-RHF Final Energy: -1572.30051236046461

   => Energetics <=

    Nuclear Repulsion Energy =           3539.2744947105484243
    One-Electron Energy =               -9176.3083458634391718
    Two-Electron Energy =                4064.7333387924263661
    Total Energy =                      -1572.3005123604643813

  Dipole Moment: [D]
     X:    -1.1728      Y:    -5.6251      Z:    -0.3220     Total:     5.7551

  Basis Set: (6-311++G** AUX)
    Blend: AUG-CC-PVTZ-RI
	 Reference Energy          =   -1572.3005123604646087 [Eh]
	 Singles Energy            =      -0.0000000000000000 [Eh]
	 Same-Spin Energy          =      -1.4693103862146590 [Eh]
	 Opposite-Spin Energy      =      -4.0472510443441330 [Eh]
	 Correlation Energy        =      -5.5165614305587916 [Eh]
	 Total Energy              =   -1577.8170737910234038 [Eh]

	 ================> DF-SCS-MP2 Energies <==================
	-----------------------------------------------------------
	 SCS Same-Spin Scale       =       0.3333333333333333 [-]
	 SCS Opposite-Spin Scale   =       1.2000000000000000 [-]
	 SCS Same-Spin Energy      =      -0.4897701287382197 [Eh]
	 SCS Opposite-Spin Energy  =      -4.8567012532129592 [Eh]
	 SCS Correlation Energy    =      -5.3464713819511793 [Eh]
	 SCS Total Energy          =   -1577.6469837424158413 [Eh]
	-----------------------------------------------------------

*** Psi4 exiting successfully. Buy a developer a beer!
