                               Psi4 1.3.2 release

  ==> Input File <==

--------------------------------------------------------------------------
molecule {
0 1
 C    1.102377    4.407631   -3.324881
 C    2.412027    4.127446   -2.911776
 C    2.690778    2.942534   -2.200486
 C    1.582228    2.091184   -1.968030
 N    0.325519    2.343105   -2.353827
 C    0.096643    3.484718   -3.018214
 C    4.066652    2.577404   -1.698485
 C    5.230866    3.336589   -1.902948
 C    6.400875    2.820944   -1.335851
 N    6.461725    1.696211   -0.629901
 C    5.294345    1.036029   -0.475129
 N    4.125141    1.437662   -0.980993
 N    5.376566   -0.128152    0.272913
 C    4.432513   -1.158601    0.622461
 C    4.918605   -2.410477    1.110358
 C    3.963387   -3.387165    1.439498
 C    2.582598   -3.207940    1.297193
 C    2.127717   -1.976270    0.818839
 C    3.050667   -0.970526    0.499125
 N    0.769897   -1.641423    0.595094
 C    0.000389   -1.823401   -0.528227
 C   -1.345804   -1.133605   -0.600528
 C   -1.587986    0.139788   -0.060980
 C   -2.859037    0.712455   -0.145768
 C   -3.923650    0.047106   -0.782789
 C   -3.664627   -1.227281   -1.322822
 C   -2.395620   -1.805483   -1.247658
 C   -5.325059    0.657737   -0.831974
 N   -6.220765    0.486199    0.326924
 C   -5.967700    1.278904    1.551226
 C   -5.111433    0.554521    2.621630
 N   -5.629880   -0.777810    3.009932
 C   -6.714466   -0.801098    3.998794
 C   -5.836677   -1.588735    1.785018
 C   -6.667537   -0.881202    0.682014
 O    0.365734   -2.535328   -1.447343
 C    6.395154   -2.728977    1.274520
 H    0.865296    5.317218   -3.868931
 H    3.187750    4.852021   -3.146024
 H    1.719100    1.146508   -1.454137
 H   -0.935136    3.659804   -3.318411
 H    5.261977    4.263706   -2.461877
 H    7.347349    3.347768   -1.454388
 H    6.336777   -0.286330    0.539298
 H    4.299356   -4.355905    1.807561
 H    1.879996   -3.998050    1.531704
 H    2.691266   -0.024570    0.127167
 H    0.348940   -1.132455    1.359821
 H   -0.773514    0.682485    0.411889
 H   -3.016138    1.700737    0.286061
 H   -4.461948   -1.783806   -1.814843
 H   -2.200710   -2.785758   -1.675707
 H   -5.227945    1.739587   -1.004332
 H   -5.854268    0.241892   -1.701777
 H   -5.596517    2.231194    1.309800
 H   -7.375846    1.513309    2.236598
 H   -5.100480    1.436086    3.844334
 H   -4.028032    0.424876    2.273193
 H   -7.627031   -0.349854    3.593714
 H   -6.417879   -0.252085    4.899670
 H   -6.933647   -1.833782    4.293285
 H   -6.273045   -2.570287    2.059798
 H   -4.473371   -1.851489    1.207172
 H   -8.126791   -0.746944    1.282809
 H   -6.755073   -1.519364   -0.243769
 H    6.866468   -2.073885    2.020599
 H    6.941378   -2.599860    0.329288
 H    6.577965   -3.761695    1.602137
}
memory 20GB
set_num_threads(6)
psi4_io.set_default_path("/scratch/bdw2292")
set freeze_core True
E, wfn = energy('mp2/6-311++G**',return_wfn=True)
oeprop(wfn,"WIBERG_LOWDIN_INDICES")
clean()
--------------------------------------------------------------------------

    Molecular point group: c1

    Geometry (in Angstrom), charge = 0, multiplicity = 1:

       Center              X                  Y                   Z               Mass
    ------------   -----------------  -----------------  -----------------  -----------------
         C            0.897581345859     4.267165260478    -3.153227230924    12.000000000000
         C            2.207231345859     3.986980260478    -2.740122230924    12.000000000000
         C            2.485982345859     2.802068260478    -2.028832230924    12.000000000000
         C            1.377432345859     1.950718260478    -1.796376230924    12.000000000000
         N            0.120723345859     2.202639260478    -2.182173230924    14.003074004430
         C           -0.108152654141     3.344252260478    -2.846560230924    12.000000000000
         C            3.861856345859     2.436938260478    -1.526831230924    12.000000000000
         C            5.026070345859     3.196123260478    -1.731294230924    12.000000000000
         C            6.196079345859     2.680478260478    -1.164197230924    12.000000000000
         N            6.256929345859     1.555745260478    -0.458247230924    14.003074004430
         C            5.089549345859     0.895563260478    -0.303475230924    12.000000000000
         N            3.920345345859     1.297196260478    -0.809339230924    14.003074004430
         N            5.171770345859    -0.268617739522     0.444566769076    14.003074004430
         C            4.227717345859    -1.299066739522     0.794114769076    12.000000000000
         C            4.713809345859    -2.550942739522     1.282011769076    12.000000000000
         C            3.758591345859    -3.527630739522     1.611151769076    12.000000000000
         C            2.377802345859    -3.348405739522     1.468846769076    12.000000000000
         C            1.922921345859    -2.116735739522     0.990492769076    12.000000000000
         C            2.845871345859    -1.110991739522     0.670778769076    12.000000000000
         N            0.565101345859    -1.781888739522     0.766747769076    14.003074004430
         C           -0.204406654141    -1.963866739522    -0.356573230924    12.000000000000
         C           -1.550599654141    -1.274070739522    -0.428874230924    12.000000000000
         C           -1.792781654141    -0.000677739522     0.110673769076    12.000000000000
         C           -3.063832654141     0.571989260478     0.025885769076    12.000000000000
         C           -4.128445654141    -0.093359739522    -0.611135230924    12.000000000000
         C           -3.869422654141    -1.367746739522    -1.151168230924    12.000000000000
         C           -2.600415654141    -1.945948739522    -1.076004230924    12.000000000000
         C           -5.529854654141     0.517271260478    -0.660320230924    12.000000000000
         N           -6.425560654141     0.345733260478     0.498577769076    14.003074004430
         C           -6.172495654141     1.138438260478     1.722879769076    12.000000000000
         C           -5.316228654141     0.414055260478     2.793283769076    12.000000000000
         N           -5.834675654141    -0.918275739522     3.181585769076    14.003074004430
         C           -6.919261654141    -0.941563739522     4.170447769076    12.000000000000
         C           -6.041472654141    -1.729200739522     1.956671769076    12.000000000000
         C           -6.872332654141    -1.021667739522     0.853667769076    12.000000000000
         O            0.160938345859    -2.675793739522    -1.275689230924    15.994914619570
         C            6.190358345859    -2.869442739522     1.446173769076    12.000000000000
         H            0.660500345859     5.176752260478    -3.697277230924     1.007825032230
         H            2.982954345859     4.711555260478    -2.974370230924     1.007825032230
         H            1.514304345859     1.006042260478    -1.282483230924     1.007825032230
         H           -1.139931654141     3.519338260478    -3.146757230924     1.007825032230
         H            5.057181345859     4.123240260478    -2.290223230924     1.007825032230
         H            7.142553345859     3.207302260478    -1.282734230924     1.007825032230
         H            6.131981345859    -0.426795739522     0.710951769076     1.007825032230
         H            4.094560345859    -4.496370739522     1.979214769076     1.007825032230
         H            1.675200345859    -4.138515739522     1.703357769076     1.007825032230
         H            2.486470345859    -0.165035739522     0.298820769076     1.007825032230
         H            0.144144345859    -1.272920739522     1.531474769076     1.007825032230
         H           -0.978309654141     0.542019260478     0.583542769076     1.007825032230
         H           -3.220933654141     1.560271260478     0.457714769076     1.007825032230
         H           -4.666743654141    -1.924271739522    -1.643189230924     1.007825032230
         H           -2.405505654141    -2.926223739522    -1.504053230924     1.007825032230
         H           -5.432740654141     1.599121260478    -0.832678230924     1.007825032230
         H           -6.059063654141     0.101426260478    -1.530123230924     1.007825032230
         H           -5.801312654141     2.090728260478     1.481453769076     1.007825032230
         H           -7.580641654141     1.372843260478     2.408251769076     1.007825032230
         H           -5.305275654141     1.295620260478     4.015987769076     1.007825032230
         H           -4.232827654141     0.284410260478     2.444846769076     1.007825032230
         H           -7.831826654141    -0.490319739522     3.765367769076     1.007825032230
         H           -6.622674654141    -0.392550739522     5.071323769076     1.007825032230
         H           -7.138442654141    -1.974247739522     4.464938769076     1.007825032230
         H           -6.477840654141    -2.710752739522     2.231451769076     1.007825032230
         H           -4.678166654141    -1.991954739522     1.378825769076     1.007825032230
         H           -8.331586654141    -0.887409739522     1.454462769076     1.007825032230
         H           -6.959868654141    -1.659829739522    -0.072115230924     1.007825032230
         H            6.661672345859    -2.214350739522     2.192252769076     1.007825032230
         H            6.736582345859    -2.740325739522     0.500941769076     1.007825032230
         H            6.373169345859    -3.902160739522     1.773790769076     1.007825032230

  Charge       = 0
  Multiplicity = 1
  Basis Set: 6-311++G**
    Blend: 6-311++G**
  Basis Set: (6-311++G** AUX)
    Blend: AUG-CC-PVTZ-JKFIT

    Orbital Energies [Eh]
    ---------------------

    Doubly Occupied:

       1A    -20.513730     2A    -15.601666     3A    -15.587088
       4A    -15.575642     5A    -15.572908     6A    -15.570452
       7A    -15.565574     8A    -15.554842     9A    -11.372157
      10A    -11.357781    11A    -11.330062    12A    -11.312921
      13A    -11.310068    14A    -11.303361    15A    -11.302783
      16A    -11.300158    17A    -11.299977    18A    -11.292282
      19A    -11.290767    20A    -11.281863    21A    -11.280732
      22A    -11.280476    23A    -11.272523    24A    -11.257627
      25A    -11.256729    26A    -11.256514    27A    -11.255207
      28A    -11.254003    29A    -11.248173    30A    -11.247926
      31A    -11.246374    32A    -11.244557    33A    -11.243387
      34A    -11.242527    35A    -11.239484    36A    -11.236391
      37A    -11.231916    38A     -1.380906    39A     -1.341230
      40A     -1.268985    41A     -1.247470    42A     -1.246935
      43A     -1.238144    44A     -1.205629    45A     -1.200722
      46A     -1.160965    47A     -1.140553    48A     -1.108803
      49A     -1.070505    50A     -1.058515    51A     -1.042534
      52A     -1.038058    53A     -1.023492    54A     -1.009612
      55A     -1.002264    56A     -0.978414    57A     -0.946780
      58A     -0.928292    59A     -0.920598    60A     -0.897838
      61A     -0.867248    62A     -0.865001    63A     -0.852241
      64A     -0.848241    65A     -0.837320    66A     -0.832655
      67A     -0.822109    68A     -0.805954    69A     -0.779976
      70A     -0.748082    71A     -0.741588    72A     -0.727680
      73A     -0.719580    74A     -0.712749    75A     -0.696025
      76A     -0.681514    77A     -0.680026    78A     -0.663647
      79A     -0.658022    80A     -0.654978    81A     -0.653659
      82A     -0.648018    83A     -0.638540    84A     -0.629081
      85A     -0.625521    86A     -0.617454    87A     -0.614652
      88A     -0.609635    89A     -0.606034    90A     -0.602688
      91A     -0.600410    92A     -0.594563    93A     -0.591305
      94A     -0.587806    95A     -0.584579    96A     -0.580642
      97A     -0.580368    98A     -0.569893    99A     -0.564582
     100A     -0.553577   101A     -0.546797   102A     -0.542097
     103A     -0.536572   104A     -0.530493   105A     -0.525947
     106A     -0.519326   107A     -0.516211   108A     -0.510165
     109A     -0.507777   110A     -0.501382   111A     -0.495757
     112A     -0.491760   113A     -0.483610   114A     -0.470364
     115A     -0.455955   116A     -0.445902   117A     -0.432371
     118A     -0.426022   119A     -0.418622   120A     -0.409634
     121A     -0.399479   122A     -0.393961   123A     -0.393658
     124A     -0.379720   125A     -0.371407   126A     -0.344464
     127A     -0.340811   128A     -0.340293   129A     -0.332653
     130A     -0.310533   131A     -0.296973

  @DF-RHF Final Energy: -1572.32107304392662

   => Energetics <=

    Nuclear Repulsion Energy =           3729.9603232538311204
    One-Electron Energy =               -9558.6303412317483890
    Two-Electron Energy =                4256.3489449339904240
    Total Energy =                      -1572.3210730439268445

  Dipole Moment: [D]
     X:     2.0203      Y:     4.3427      Z:     0.3610     Total:     4.8032

  Basis Set: (6-311++G** AUX)
    Blend: AUG-CC-PVTZ-RI
	 Reference Energy          =   -1572.3210730439266172 [Eh]
	 Singles Energy            =      -0.0000000000000000 [Eh]
	 Same-Spin Energy          =      -1.4702669476448182 [Eh]
	 Opposite-Spin Energy      =      -4.0476427966716972 [Eh]
	 Correlation Energy        =      -5.5179097443165155 [Eh]
	 Total Energy              =   -1577.8389827882431291 [Eh]

	 ================> DF-SCS-MP2 Energies <==================
	-----------------------------------------------------------
	 SCS Same-Spin Scale       =       0.3333333333333333 [-]
	 SCS Opposite-Spin Scale   =       1.2000000000000000 [-]
	 SCS Same-Spin Energy      =      -0.4900889825482727 [Eh]
	 SCS Opposite-Spin Energy  =      -4.8571713560060363 [Eh]
	 SCS Correlation Energy    =      -5.3472603385543094 [Eh]
	 SCS Total Energy          =   -1577.6683333824810234 [Eh]
	-----------------------------------------------------------

*** Psi4 exiting successfully. Buy a developer a beer!
