                               Psi4 1.3.2 release

  ==> Input File <==

--------------------------------------------------------------------------
molecule {
0 1
 C    0.834600    4.723761   -2.561258
 C    2.160215    4.457819   -2.193180
 C    2.507846    3.192587   -1.679636
 C    1.454937    2.248929   -1.601165
 N    0.181148    2.487528   -1.938443
 C   -0.115843    3.708421   -2.408790
 C    3.895819    2.828221   -1.214923
 C    5.018155    3.669984   -1.295358
 C    6.210798    3.150552   -0.779860
 N    6.326559    1.943381   -0.232187
 C    5.199924    1.202700   -0.194877
 N    4.017634    1.605241   -0.663835
 N    5.343980   -0.044853    0.384569
 C    4.465653   -1.171757    0.572173
 C    5.027640   -2.446376    0.892406
 C    4.139542   -3.520379    1.070967
 C    2.750609   -3.414258    0.939438
 C    2.215588   -2.162555    0.623087
 C    3.073512   -1.065771    0.454216
 N    0.835135   -1.894873    0.419959
 C   -0.029604   -2.423938   -0.507774
 C   -1.383576   -1.768489   -0.689772
 C   -1.592965   -0.383005   -0.594917
 C   -2.872484    0.152084   -0.762357
 C   -3.981387   -0.665532   -1.051773
 C   -3.757115   -2.053496   -1.137707
 C   -2.480458   -2.597299   -0.977536
 C   -5.385166   -0.076432   -1.206524
 N   -6.207061    0.188905   -0.013412
 C   -5.887730    1.350507    0.848279
 C   -4.967179    1.029113    2.054369
 N   -5.446479   -0.093313    2.896380
 C   -6.479645    0.222402    3.889852
 C   -5.705634   -1.264952    2.024689
 C   -6.631440   -0.960662    0.818573
 O    0.263539   -3.409093   -1.164643
 C    6.521397   -2.686261    1.038575
 H    0.543100    5.693774   -2.953047
 H    2.895889    5.251078   -2.300584
 H    1.648572    1.239473   -1.253759
 H   -1.159433    3.865620   -2.676978
 H    5.010145    4.666925   -1.718241
 H    7.139573    3.720305   -0.793365
 H    6.309786   -0.176924    0.643774
 H    4.539185   -4.502804    1.319673
 H    2.100925   -4.275400    1.033089
 H    2.649864   -0.102869    0.223208
 H    0.469864   -1.153956    1.002190
 H   -0.747205    0.277573   -0.422815
 H   -3.000136    1.231231   -0.681477
 H   -4.592179   -2.726533   -1.330439
 H   -2.317766   -3.668626   -1.064425
 H   -5.298530    0.876220   -1.747941
 H   -5.972606   -0.756366   -1.840021
 H   -5.457874    2.219708    0.215064
 H   -7.184807    1.842357    1.401944
 H   -4.838849    2.126834    2.828310
 H   -3.812782    0.724349    1.648964
 H   -7.412429    0.527467    3.402278
 H   -6.140641    1.033675    4.544112
 H   -6.679961   -0.653263    4.518013
 H   -6.168850   -2.180179    2.704770
 H   -4.420415   -1.708871    1.530686
 H   -7.967402   -0.637779    1.353105
 H   -6.768664   -1.936004    0.136997
 H    6.963968   -2.107561    1.861918
 H    7.054933   -2.408285    0.125210
 H    6.765363   -3.733793    1.233328
}
memory 20GB
set_num_threads(6)
psi4_io.set_default_path("/scratch/bdw2292")
set freeze_core True
E, wfn = energy('mp2/6-311++G**',return_wfn=True)
oeprop(wfn,"WIBERG_LOWDIN_INDICES")
clean()
--------------------------------------------------------------------------

    Molecular point group: c1

    Geometry (in Angstrom), charge = 0, multiplicity = 1:

       Center              X                  Y                   Z               Mass
    ------------   -----------------  -----------------  -----------------  -----------------
         C            0.653587881897     4.630358872917    -2.437169276982    12.000000000000
         C            1.979202881897     4.364416872917    -2.069091276982    12.000000000000
         C            2.326833881897     3.099184872917    -1.555547276982    12.000000000000
         C            1.273924881897     2.155526872917    -1.477076276982    12.000000000000
         N            0.000135881897     2.394125872917    -1.814354276982    14.003074004430
         C           -0.296855118103     3.615018872917    -2.284701276982    12.000000000000
         C            3.714806881897     2.734818872917    -1.090834276982    12.000000000000
         C            4.837142881897     3.576581872917    -1.171269276982    12.000000000000
         C            6.029785881897     3.057149872917    -0.655771276982    12.000000000000
         N            6.145546881897     1.849978872917    -0.108098276982    14.003074004430
         C            5.018911881897     1.109297872917    -0.070788276982    12.000000000000
         N            3.836621881897     1.511838872917    -0.539746276982    14.003074004430
         N            5.162967881897    -0.138255127083     0.508657723018    14.003074004430
         C            4.284640881897    -1.265159127083     0.696261723018    12.000000000000
         C            4.846627881897    -2.539778127083     1.016494723018    12.000000000000
         C            3.958529881897    -3.613781127083     1.195055723018    12.000000000000
         C            2.569596881897    -3.507660127083     1.063526723018    12.000000000000
         C            2.034575881897    -2.255957127083     0.747175723018    12.000000000000
         C            2.892499881897    -1.159173127083     0.578304723018    12.000000000000
         N            0.654122881897    -1.988275127083     0.544047723018    14.003074004430
         C           -0.210616118103    -2.517340127083    -0.383685276982    12.000000000000
         C           -1.564588118103    -1.861891127083    -0.565683276982    12.000000000000
         C           -1.773977118103    -0.476407127083    -0.470828276982    12.000000000000
         C           -3.053496118103     0.058681872917    -0.638268276982    12.000000000000
         C           -4.162399118103    -0.758934127083    -0.927684276982    12.000000000000
         C           -3.938127118103    -2.146898127083    -1.013618276982    12.000000000000
         C           -2.661470118103    -2.690701127083    -0.853447276982    12.000000000000
         C           -5.566178118103    -0.169834127083    -1.082435276982    12.000000000000
         N           -6.388073118103     0.095502872917     0.110676723018    14.003074004430
         C           -6.068742118103     1.257104872917     0.972367723018    12.000000000000
         C           -5.148191118103     0.935710872917     2.178457723018    12.000000000000
         N           -5.627491118103    -0.186715127083     3.020468723018    14.003074004430
         C           -6.660657118103     0.128999872917     4.013940723018    12.000000000000
         C           -5.886646118103    -1.358354127083     2.148777723018    12.000000000000
         C           -6.812452118103    -1.054064127083     0.942661723018    12.000000000000
         O            0.082526881897    -3.502495127083    -1.040554276982    15.994914619570
         C            6.340384881897    -2.779663127083     1.162663723018    12.000000000000
         H            0.362087881897     5.600371872917    -2.828958276982     1.007825032230
         H            2.714876881897     5.157675872917    -2.176495276982     1.007825032230
         H            1.467559881897     1.146070872917    -1.129670276982     1.007825032230
         H           -1.340445118103     3.772217872917    -2.552889276982     1.007825032230
         H            4.829132881897     4.573522872917    -1.594152276982     1.007825032230
         H            6.958560881897     3.626902872917    -0.669276276982     1.007825032230
         H            6.128773881897    -0.270326127083     0.767862723018     1.007825032230
         H            4.358172881897    -4.596206127083     1.443761723018     1.007825032230
         H            1.919912881897    -4.368802127083     1.157177723018     1.007825032230
         H            2.468851881897    -0.196271127083     0.347296723018     1.007825032230
         H            0.288851881897    -1.247358127083     1.126278723018     1.007825032230
         H           -0.928217118103     0.184170872917    -0.298726276982     1.007825032230
         H           -3.181148118103     1.137828872917    -0.557388276982     1.007825032230
         H           -4.773191118103    -2.819935127083    -1.206350276982     1.007825032230
         H           -2.498778118103    -3.762028127083    -0.940336276982     1.007825032230
         H           -5.479542118103     0.782817872917    -1.623852276982     1.007825032230
         H           -6.153618118103    -0.849768127083    -1.715932276982     1.007825032230
         H           -5.638886118103     2.126305872917     0.339152723018     1.007825032230
         H           -7.365819118103     1.748954872917     1.526032723018     1.007825032230
         H           -5.019861118103     2.033431872917     2.952398723018     1.007825032230
         H           -3.993794118103     0.630946872917     1.773052723018     1.007825032230
         H           -7.593441118103     0.434064872917     3.526366723018     1.007825032230
         H           -6.321653118103     0.940272872917     4.668200723018     1.007825032230
         H           -6.860973118103    -0.746665127083     4.642101723018     1.007825032230
         H           -6.349862118103    -2.273581127083     2.828858723018     1.007825032230
         H           -4.601427118103    -1.802273127083     1.654774723018     1.007825032230
         H           -8.148414118103    -0.731181127083     1.477193723018     1.007825032230
         H           -6.949676118103    -2.029406127083     0.261085723018     1.007825032230
         H            6.782955881897    -2.200963127083     1.986006723018     1.007825032230
         H            6.873920881897    -2.501687127083     0.249298723018     1.007825032230
         H            6.584350881897    -3.827195127083     1.357416723018     1.007825032230

  Charge       = 0
  Multiplicity = 1
  Basis Set: 6-311++G**
    Blend: 6-311++G**
  Basis Set: (6-311++G** AUX)
    Blend: AUG-CC-PVTZ-JKFIT

    Orbital Energies [Eh]
    ---------------------

    Doubly Occupied:

       1A    -20.514287     2A    -15.602719     3A    -15.590219
       4A    -15.582439     5A    -15.571664     6A    -15.567706
       7A    -15.567294     8A    -15.553097     9A    -11.373249
      10A    -11.358381    11A    -11.333036    12A    -11.312008
      13A    -11.309724    14A    -11.307481    15A    -11.303782
      16A    -11.300790    17A    -11.299520    18A    -11.298127
      19A    -11.296510    20A    -11.286916    21A    -11.283407
      22A    -11.277395    23A    -11.275685    24A    -11.262932
      25A    -11.254109    26A    -11.253753    27A    -11.253466
      28A    -11.250582    29A    -11.250574    30A    -11.246698
      31A    -11.244969    32A    -11.243091    33A    -11.242543
      34A    -11.240924    35A    -11.236511    36A    -11.232573
      37A    -11.232429    38A     -1.381201    39A     -1.343802
      40A     -1.274965    41A     -1.248108    42A     -1.243235
      43A     -1.239169    44A     -1.207795    45A     -1.197664
      46A     -1.158751    47A     -1.140080    48A     -1.113588
      49A     -1.073406    50A     -1.057080    51A     -1.046105
      52A     -1.037331    53A     -1.020593    54A     -1.009206
      55A     -0.991485    56A     -0.975061    57A     -0.946252
      58A     -0.926572    59A     -0.924264    60A     -0.899923
      61A     -0.870213    62A     -0.863749    63A     -0.855494
      64A     -0.839356    65A     -0.830815    66A     -0.826206
      67A     -0.823764    68A     -0.803508    69A     -0.778213
      70A     -0.751702    71A     -0.739248    72A     -0.728517
      73A     -0.722706    74A     -0.700795    75A     -0.695349
      76A     -0.682538    77A     -0.670818    78A     -0.666410
      79A     -0.656315    80A     -0.654496    81A     -0.653277
      82A     -0.640288    83A     -0.638768    84A     -0.626318
      85A     -0.625935    86A     -0.617510    87A     -0.613045
      88A     -0.605937    89A     -0.604960    90A     -0.603362
      91A     -0.596134    92A     -0.593525    93A     -0.588990
      94A     -0.584156    95A     -0.583178    96A     -0.581721
      97A     -0.577703    98A     -0.569401    99A     -0.562239
     100A     -0.558833   101A     -0.547249   102A     -0.541536
     103A     -0.528656   104A     -0.525633   105A     -0.521951
     106A     -0.520143   107A     -0.515996   108A     -0.508987
     109A     -0.507234   110A     -0.501497   111A     -0.500220
     112A     -0.491337   113A     -0.485220   114A     -0.472681
     115A     -0.456042   116A     -0.448658   117A     -0.438872
     118A     -0.433908   119A     -0.424786   120A     -0.412561
     121A     -0.409674   122A     -0.407871   123A     -0.397606
     124A     -0.380340   125A     -0.372916   126A     -0.343933
     127A     -0.342790   128A     -0.339147   129A     -0.324415
     130A     -0.311180   131A     -0.295419

  @DF-RHF Final Energy: -1572.36634253433044

   => Energetics <=

    Nuclear Repulsion Energy =           3720.0515220041256725
    One-Electron Energy =               -9538.9153858797126304
    Two-Electron Energy =                4246.4975213412571975
    Total Energy =                      -1572.3663425343302151

  Dipole Moment: [D]
     X:     1.6005      Y:     5.7558      Z:     0.4964     Total:     5.9947

  Basis Set: (6-311++G** AUX)
    Blend: AUG-CC-PVTZ-RI
	 Reference Energy          =   -1572.3663425343304425 [Eh]
	 Singles Energy            =      -0.0000000000000000 [Eh]
	 Same-Spin Energy          =      -1.4702738882466775 [Eh]
	 Opposite-Spin Energy      =      -4.0464443612164356 [Eh]
	 Correlation Energy        =      -5.5167182494631133 [Eh]
	 Total Energy              =   -1577.8830607837935531 [Eh]

	 ================> DF-SCS-MP2 Energies <==================
	-----------------------------------------------------------
	 SCS Same-Spin Scale       =       0.3333333333333333 [-]
	 SCS Opposite-Spin Scale   =       1.2000000000000000 [-]
	 SCS Same-Spin Energy      =      -0.4900912960822258 [Eh]
	 SCS Opposite-Spin Energy  =      -4.8557332334597225 [Eh]
	 SCS Correlation Energy    =      -5.3458245295419484 [Eh]
	 SCS Total Energy          =   -1577.7121670638723572 [Eh]
	-----------------------------------------------------------

*** Psi4 exiting successfully. Buy a developer a beer!
