 Gaussian 09, Revision A.02,
 Gaussian 09:  EM64L-G09RevA.02 11-Jun-2009

 --------------------------------------------------
 #P opt=(,maxcycle=400) wB97XD/6-31G* MaxDisk=100GB
 --------------------------------------------------

 --------------------------------------------------------------
 MOLECULE0 Rotatable Bond Optimization on node37.bme.utexas.edu
 --------------------------------------------------------------
 Symbolic Z-matrix:
 Charge =  0 Multiplicity = 1

 SCF Done:  E(RwB97XD) =  -1581.50011814     A.U. after   16 cycles
 SCF Done:  E(RwB97XD) =  -1581.55997812     A.U. after   13 cycles
 SCF Done:  E(RwB97XD) =  -1581.65829231     A.U. after   14 cycles
 SCF Done:  E(RwB97XD) =  -1581.70829767     A.U. after   14 cycles
 SCF Done:  E(RwB97XD) =  -1581.72925593     A.U. after   16 cycles
 SCF Done:  E(RwB97XD) =  -1581.73763059     A.U. after   16 cycles
 SCF Done:  E(RwB97XD) =  -1581.74909848     A.U. after   17 cycles
 SCF Done:  E(RwB97XD) =  -1581.75215636     A.U. after   17 cycles
 SCF Done:  E(RwB97XD) =  -1581.75794069     A.U. after   16 cycles
 SCF Done:  E(RwB97XD) =  -1581.72336971     A.U. after   17 cycles
 SCF Done:  E(RwB97XD) =  -1581.76091453     A.U. after   11 cycles
 SCF Done:  E(RwB97XD) =  -1581.76091507     A.U. after   12 cycles
 SCF Done:  E(RwB97XD) =  -1581.76091527     A.U. after   11 cycles
 SCF Done:  E(RwB97XD) =  -1581.76091444     A.U. after   12 cycles
 SCF Done:  E(RwB97XD) =  -1581.76091447     A.U. after   11 cycles
 SCF Done:  E(RwB97XD) =  -1581.76091425     A.U. after   11 cycles
 SCF Done:  E(RwB97XD) =  -1581.76091482     A.U. after    8 cycles
 SCF Done:  E(RwB97XD) =  -1581.76091522     A.U. after   10 cycles
 SCF Done:  E(RwB97XD) =  -1581.76091504     A.U. after    7 cycles
 SCF Done:  E(RwB97XD) =  -1581.76091515     A.U. after    6 cycles
 Optimization completed.
    -- Stationary point found.

                         Standard orientation:
 ---------------------------------------------------------------------
 Center     Atomic      Atomic             Coordinates (Angstroms)
 Number     Number       Type             X           Y           Z
 ---------------------------------------------------------------------
      1          6           0        7.447348    1.882584    0.722700
      2          6           0        6.886574    0.631938    0.942674
      3          6           0        5.748554    0.264218    0.224823
      4          6           0        5.231051    1.192011   -0.686863
      5          7           0        5.760021    2.393224   -0.910119
      6          6           0        6.848457    2.723388   -0.210344
      7          6           0        5.088633   -1.050678    0.402535
      8          6           0        5.775840   -2.182443    0.835925
      9          6           0        5.027146   -3.349128    0.959536
     10          7           0        3.733769   -3.420565    0.679298
     11          6           0        3.169441   -2.272734    0.251111
     12          7           0        3.783924   -1.098223    0.108656
     13          7           0        1.840455   -2.393342   -0.049686
     14          6           0        0.907959   -1.466774   -0.542136
     15          6           0       -0.317251   -1.978970   -1.016581
     16          6           0       -1.256031   -1.084787   -1.521489
     17          6           0       -1.022486    0.282944   -1.553772
     18          6           0        0.159154    0.782592   -1.014650
     19          6           0        1.128057   -0.086837   -0.519860
     20          7           0        0.391023    2.181103   -0.930660
     21          6           0       -0.515094    3.157842   -0.582689
     22          6           0       -1.744911    2.698005    0.144094
     23          6           0       -1.683378    1.776556    1.191266
     24          6           0       -2.851045    1.320813    1.784487
     25          6           0       -4.101336    1.742458    1.325604
     26          6           0       -4.148813    2.715503    0.326313
     27          6           0       -2.981228    3.201827   -0.252787
     28          6           0       -5.375684    1.105073    1.854748
     29          7           0       -5.804783   -0.139975    1.235502
     30          6           0       -5.079970   -1.361054    1.566394
     31          6           0       -3.972665   -1.730431    0.563509
     32          7           0       -4.437433   -1.743186   -0.823180
     33          6           0       -5.260092   -2.892937   -1.159471
     34          6           0       -5.059098   -0.457274   -1.138618
     35          6           0       -6.192509   -0.084621   -0.168105
     36          8           0       -0.314022    4.331781   -0.842187
     37          6           0       -0.625602   -3.454695   -0.982649
     38          1           0        8.326838    2.206446    1.268931
     39          1           0        7.315007   -0.038559    1.682193
     40          1           0        4.347777    0.932708   -1.264905
     41          1           0        7.259348    3.711612   -0.404206
     42          1           0        6.838601   -2.174217    1.042888
     43          1           0        5.493574   -4.272806    1.296289
     44          1           0        1.519508   -3.343505    0.060961
     45          1           0       -2.213264   -1.467778   -1.867160
     46          1           0       -1.767694    0.956666   -1.961317
     47          1           0        2.042601    0.306932   -0.099450
     48          1           0        1.252016    2.546780   -1.316901
     49          1           0       -0.722036    1.398652    1.525562
     50          1           0       -2.794215    0.597528    2.594793
     51          1           0       -5.112655    3.086716   -0.015062
     52          1           0       -3.018600    3.954525   -1.034168
     53          1           0       -5.264417    0.910691    2.928313
     54          1           0       -6.199825    1.822225    1.749340
     55          1           0       -4.657108   -1.261030    2.572262
     56          1           0       -5.809128   -2.184225    1.611559
     57          1           0       -3.559507   -2.717540    0.805567
     58          1           0       -3.152393   -1.006678    0.624520
     59          1           0       -6.215048   -2.968450   -0.612143
     60          1           0       -4.691938   -3.808655   -0.961685
     61          1           0       -5.491394   -2.864996   -2.229822
     62          1           0       -5.439835   -0.491830   -2.166593
     63          1           0       -4.273931    0.307276   -1.097837
     64          1           0       -7.035131   -0.776263   -0.318226
     65          1           0       -6.566885    0.919842   -0.393980
     66          1           0       -0.618854   -3.855440    0.040437
     67          1           0        0.088399   -4.041953   -1.574446
     68          1           0       -1.622598   -3.638508   -1.391120
 ---------------------------------------------------------------------

 The electronic state is 1-A.
 Alpha  occ. eigenvalues --  -19.22917 -14.49159 -14.47485 -14.45837 -14.45644
 Alpha  occ. eigenvalues --  -14.45485 -14.44065 -14.43828 -10.41567 -10.39773
 Alpha  occ. eigenvalues --  -10.37235 -10.36047 -10.34933 -10.34314 -10.34135
 Alpha  occ. eigenvalues --  -10.33945 -10.33323 -10.32779 -10.32548 -10.31981
 Alpha  occ. eigenvalues --  -10.31682 -10.31591 -10.31480 -10.31324 -10.31154
 Alpha  occ. eigenvalues --  -10.31029 -10.30796 -10.30725 -10.30705 -10.30544
 Alpha  occ. eigenvalues --  -10.30415 -10.30229 -10.30198 -10.30172 -10.29252
 Alpha  occ. eigenvalues --  -10.29230 -10.29088  -1.13111  -1.12095  -1.05364
 Alpha  occ. eigenvalues --   -1.04398  -1.04269  -1.02734  -1.00413  -1.00023
 Alpha  occ. eigenvalues --   -0.96006  -0.94711  -0.92488  -0.89223  -0.87527
 Alpha  occ. eigenvalues --   -0.86963  -0.86556  -0.85732  -0.84659  -0.83853
 Alpha  occ. eigenvalues --   -0.82191  -0.79255  -0.78423  -0.77695  -0.76112
 Alpha  occ. eigenvalues --   -0.73687  -0.73389  -0.73044  -0.72205  -0.70679
 Alpha  occ. eigenvalues --   -0.70177  -0.69189  -0.68730  -0.66203  -0.64679
 Alpha  occ. eigenvalues --   -0.64160  -0.63967  -0.61621  -0.60703  -0.59865
 Alpha  occ. eigenvalues --   -0.58619  -0.57954  -0.57125  -0.56731  -0.56090
 Alpha  occ. eigenvalues --   -0.55569  -0.55490  -0.55232  -0.54877  -0.54494
 Alpha  occ. eigenvalues --   -0.54199  -0.53854  -0.53292  -0.53139  -0.51934
 Alpha  occ. eigenvalues --   -0.51766  -0.51417  -0.51169  -0.50641  -0.50456
 Alpha  occ. eigenvalues --   -0.50104  -0.49758  -0.49366  -0.48955  -0.47950
 Alpha  occ. eigenvalues --   -0.47670  -0.47149  -0.46683  -0.46584  -0.45907
 Alpha  occ. eigenvalues --   -0.45683  -0.45501  -0.45074  -0.44286  -0.43729
 Alpha  occ. eigenvalues --   -0.43306  -0.42807  -0.42183  -0.41724  -0.41341
 Alpha  occ. eigenvalues --   -0.41301  -0.41086  -0.39958  -0.37345  -0.36411
 Alpha  occ. eigenvalues --   -0.34968  -0.34787  -0.33577  -0.33399  -0.33056
 Alpha  occ. eigenvalues --   -0.32667  -0.31808  -0.31026  -0.29892  -0.27275
 Alpha  occ. eigenvalues --   -0.25485
 Alpha virt. eigenvalues --    0.00278   0.03633   0.04016   0.04720   0.06283
 Alpha virt. eigenvalues --    0.07729   0.07753   0.10318   0.13503   0.14532
 Alpha virt. eigenvalues --    0.16115   0.16917   0.17631   0.17818   0.18497

 Mulliken atomic charges:
              1
     1  C   -0.195529
     2  C   -0.157383
     3  C    0.035142
     4  C    0.008139
     5  N   -0.420627
     6  C    0.026046
     7  C    0.288062
     8  C   -0.252867
     9  C    0.049782
    10  N   -0.497419
    11  C    0.709607
    12  N   -0.560512
    13  N   -0.802608
    14  C    0.293867
    15  C    0.104005
    16  C   -0.233853
    17  C   -0.173745
    18  C    0.274401
    19  C   -0.226116
    20  N   -0.719721
    21  C    0.531312
    22  C    0.018603
    23  C   -0.162775
    24  C   -0.221073
    25  C    0.155346
    26  C   -0.223332
    27  C   -0.182955
    28  C   -0.264795
    29  N   -0.381736
    30  C   -0.183414
    31  C   -0.182488
    32  N   -0.392336
    33  C   -0.351251
    34  C   -0.183172
    35  C   -0.185174
    36  O   -0.501943
    37  C   -0.610876
    38  H    0.182801
    39  H    0.182601
    40  H    0.196352
    41  H    0.183067
    42  H    0.180745
    43  H    0.188110
    44  H    0.369605
    45  H    0.194220
    46  H    0.169919
    47  H    0.207893
    48  H    0.364682
    49  H    0.184756
    50  H    0.161626
    51  H    0.162480
    52  H    0.192879
    53  H    0.170449
    54  H    0.169583
    55  H    0.154723
    56  H    0.158955
    57  H    0.148891
    58  H    0.174405
    59  H    0.141366
    60  H    0.164700
    61  H    0.169101
    62  H    0.154434
    63  H    0.170234
    64  H    0.160002
    65  H    0.157339
    66  H    0.174698
    67  H    0.184502
    68  H    0.198268
 Sum of Mulliken atomic charges =   0.00000

 Dipole moment (field-independent basis, Debye):
    X=              1.3184    Y=             -5.2669    Z=              2.0718  Tot=              5.8112
 Quadrupole moment (field-independent basis, Debye-Ang):
   XX=           -168.0009   YY=           -227.6477   ZZ=           -213.8058
   XY=             -1.7187   XZ=             17.3899   YZ=              2.1620

 Normal termination of Gaussian 09 at Wed Mar  4 08:45:54 2020.
