                               Psi4 1.3.2 release

  ==> Input File <==

--------------------------------------------------------------------------
molecule {
0 1
 C    2.787087    4.455356   -4.066270
 C    3.529082    4.349726   -2.882483
 C    3.534553    3.139896   -2.159599
 C    2.760909    2.086328   -2.707963
 N    2.044957    2.172387   -3.836872
 C    2.064023    3.338478   -4.498320
 C    4.297262    2.942059   -0.874267
 C    5.086041    3.912582   -0.233420
 C    5.692534    3.512726    0.963266
 N    5.562073    2.305239    1.506068
 C    4.785776    1.443680    0.818559
 N    4.164043    1.719042   -0.327697
 N    4.634631    0.192737    1.364540
 C    3.961305   -0.955189    0.866091
 C    4.722899   -2.090045    0.465979
 C    4.007419   -3.194892   -0.020230
 C    2.612843   -3.225018   -0.135953
 C    1.882566   -2.099050    0.264336
 C    2.566212   -0.976723    0.764551
 N    0.459426   -1.963922    0.183111
 C   -0.488182   -2.768705   -0.406734
 C   -1.891508   -2.216069   -0.555340
 C   -2.158105   -0.864181   -0.826504
 C   -3.474841   -0.410233   -0.928188
 C   -4.567106   -1.285930   -0.780518
 C   -4.284470   -2.640896   -0.521126
 C   -2.970728   -3.104729   -0.421258
 C   -6.006381   -0.771133   -0.837623
 N   -6.603547   -0.191369    0.379733
 C   -6.184187    1.161105    0.811575
 C   -5.038872    1.177035    1.856702
 N   -5.301321    0.347759    3.055961
 C   -6.129636    0.950015    4.107595
 C   -5.675729   -1.020373    2.622093
 C   -6.803550   -1.067200    1.557578
 O   -0.241329   -3.901254   -0.789031
 C    6.239269   -2.127053    0.535371
 H    2.767365    5.377748   -4.639115
 H    4.087298    5.220416   -2.547509
 H    2.722957    1.125031   -2.202228
 H    1.472606    3.375085   -5.411693
 H    5.234957    4.917553   -0.608769
 H    6.319101    4.209024    1.520059
 H    5.172345    0.076438    2.211442
 H    4.551844   -4.081131   -0.343419
 H    2.101852   -4.092978   -0.534724
 H    2.037206   -0.081181    1.061467
 H    0.103538   -1.097654    0.562126
 H   -1.330415   -0.171890   -0.960129
 H   -3.648849    0.647199   -1.128582
 H   -5.099495   -3.352085   -0.387840
 H   -2.760811   -4.153074   -0.224317
 H   -6.072385   -0.005156   -1.623985
 H   -6.660635   -1.600212   -1.144466
 H   -5.986136    1.775817   -0.019280
 H   -7.428778    1.803786    1.552384
 H   -4.866701    2.604364    2.295868
 H   -4.050912    0.830853    1.397705
 H   -7.153596    1.117793    3.755332
 H   -5.702405    1.908494    4.423626
 H   -6.162282    0.293089    4.984406
 H   -5.929077   -1.637257    3.513923
 H   -4.456758   -1.619752    2.000440
 H   -8.097405   -0.551275    2.298392
 H   -7.019709   -2.145282    1.223216
 H    6.592101   -2.136216    1.576236
 H    6.688090   -1.251972    0.044940
 H    6.667725   -3.012681    0.046197
}
memory 20GB
set_num_threads(6)
psi4_io.set_default_path("/scratch/bdw2292")
set freeze_core True
E, wfn = energy('mp2/6-311++G**',return_wfn=True)
oeprop(wfn,"WIBERG_LOWDIN_INDICES")
clean()
--------------------------------------------------------------------------

    Molecular point group: c1

    Geometry (in Angstrom), charge = 0, multiplicity = 1:

       Center              X                  Y                   Z               Mass
    ------------   -----------------  -----------------  -----------------  -----------------
         C            2.609313543664     4.402837198238    -3.956916285287    12.000000000000
         C            3.351308543664     4.297207198238    -2.773129285287    12.000000000000
         C            3.356779543664     3.087377198238    -2.050245285287    12.000000000000
         C            2.583135543664     2.033809198238    -2.598609285287    12.000000000000
         N            1.867183543664     2.119868198238    -3.727518285287    14.003074004430
         C            1.886249543664     3.285959198238    -4.388966285287    12.000000000000
         C            4.119488543664     2.889540198238    -0.764913285287    12.000000000000
         C            4.908267543664     3.860063198238    -0.124066285287    12.000000000000
         C            5.514760543664     3.460207198238     1.072619714713    12.000000000000
         N            5.384299543664     2.252720198238     1.615421714713    14.003074004430
         C            4.608002543664     1.391161198238     0.927912714713    12.000000000000
         N            3.986269543664     1.666523198238    -0.218343285287    14.003074004430
         N            4.456857543664     0.140218198238     1.473893714713    14.003074004430
         C            3.783531543664    -1.007707801762     0.975444714713    12.000000000000
         C            4.545125543664    -2.142563801762     0.575332714713    12.000000000000
         C            3.829645543664    -3.247410801762     0.089123714713    12.000000000000
         C            2.435069543664    -3.277536801762    -0.026599285287    12.000000000000
         C            1.704792543664    -2.151568801762     0.373689714713    12.000000000000
         C            2.388438543664    -1.029241801762     0.873904714713    12.000000000000
         N            0.281652543664    -2.016440801762     0.292464714713    14.003074004430
         C           -0.665955456336    -2.821223801762    -0.297380285287    12.000000000000
         C           -2.069281456336    -2.268587801762    -0.445986285287    12.000000000000
         C           -2.335878456336    -0.916699801762    -0.717150285287    12.000000000000
         C           -3.652614456336    -0.462751801762    -0.818834285287    12.000000000000
         C           -4.744879456336    -1.338448801762    -0.671164285287    12.000000000000
         C           -4.462243456336    -2.693414801762    -0.411772285287    12.000000000000
         C           -3.148501456336    -3.157247801762    -0.311904285287    12.000000000000
         C           -6.184154456336    -0.823651801762    -0.728269285287    12.000000000000
         N           -6.781320456336    -0.243887801762     0.489086714713    14.003074004430
         C           -6.361960456336     1.108586198238     0.920928714713    12.000000000000
         C           -5.216645456336     1.124516198238     1.966055714713    12.000000000000
         N           -5.479094456336     0.295240198238     3.165314714713    14.003074004430
         C           -6.307409456336     0.897496198238     4.216948714713    12.000000000000
         C           -5.853502456336    -1.072891801762     2.731446714713    12.000000000000
         C           -6.981323456336    -1.119718801762     1.666931714713    12.000000000000
         O           -0.419102456336    -3.953772801762    -0.679677285287    15.994914619570
         C            6.061495543664    -2.179571801762     0.644724714713    12.000000000000
         H            2.589591543664     5.325229198238    -4.529761285287     1.007825032230
         H            3.909524543664     5.167897198238    -2.438155285287     1.007825032230
         H            2.545183543664     1.072512198238    -2.092874285287     1.007825032230
         H            1.294832543664     3.322566198238    -5.302339285287     1.007825032230
         H            5.057183543664     4.865034198238    -0.499415285287     1.007825032230
         H            6.141327543664     4.156505198238     1.629412714713     1.007825032230
         H            4.994571543664     0.023919198238     2.320795714713     1.007825032230
         H            4.374070543664    -4.133649801762    -0.234065285287     1.007825032230
         H            1.924078543664    -4.145496801762    -0.425370285287     1.007825032230
         H            1.859432543664    -0.133699801762     1.170820714713     1.007825032230
         H           -0.074235456336    -1.150172801762     0.671479714713     1.007825032230
         H           -1.508188456336    -0.224408801762    -0.850775285287     1.007825032230
         H           -3.826622456336     0.594680198238    -1.019228285287     1.007825032230
         H           -5.277268456336    -3.404603801762    -0.278486285287     1.007825032230
         H           -2.938584456336    -4.205592801762    -0.114963285287     1.007825032230
         H           -6.250158456336    -0.057674801762    -1.514631285287     1.007825032230
         H           -6.838408456336    -1.652730801762    -1.035112285287     1.007825032230
         H           -6.163909456336     1.723298198238     0.090073714713     1.007825032230
         H           -7.606551456336     1.751267198238     1.661737714713     1.007825032230
         H           -5.044474456336     2.551845198238     2.405221714713     1.007825032230
         H           -4.228685456336     0.778334198238     1.507058714713     1.007825032230
         H           -7.331369456336     1.065274198238     3.864685714713     1.007825032230
         H           -5.880178456336     1.855975198238     4.532979714713     1.007825032230
         H           -6.340055456336     0.240570198238     5.093759714713     1.007825032230
         H           -6.106850456336    -1.689775801762     3.623276714713     1.007825032230
         H           -4.634531456336    -1.672270801762     2.109793714713     1.007825032230
         H           -8.275178456336    -0.603793801762     2.407745714713     1.007825032230
         H           -7.197482456336    -2.197800801762     1.332569714713     1.007825032230
         H            6.414327543664    -2.188734801762     1.685589714713     1.007825032230
         H            6.510316543664    -1.304490801762     0.154293714713     1.007825032230
         H            6.489951543664    -3.065199801762     0.155550714713     1.007825032230

  Charge       = 0
  Multiplicity = 1
  Basis Set: 6-311++G**
    Blend: 6-311++G**
  Basis Set: (6-311++G** AUX)
    Blend: AUG-CC-PVTZ-JKFIT

    Orbital Energies [Eh]
    ---------------------

    Doubly Occupied:

       1A    -20.526566     2A    -15.607050     3A    -15.589114
       4A    -15.576880     5A    -15.574162     6A    -15.565910
       7A    -15.560062     8A    -15.557998     9A    -11.369439
      10A    -11.365658    11A    -11.326160    12A    -11.317960
      13A    -11.307440    14A    -11.307058    15A    -11.306048
      16A    -11.303550    17A    -11.296673    18A    -11.290550
      19A    -11.289165    20A    -11.287599    21A    -11.285298
      22A    -11.279837    23A    -11.269385    24A    -11.264754
      25A    -11.264493    26A    -11.263186    27A    -11.256739
      28A    -11.255695    29A    -11.255106    30A    -11.252821
      31A    -11.248820    32A    -11.246351    33A    -11.243961
      34A    -11.243206    35A    -11.240051    36A    -11.234051
      37A    -11.231383    38A     -1.392544    39A     -1.339797
      40A     -1.266613    41A     -1.255020    42A     -1.250714
      43A     -1.240443    44A     -1.204439    45A     -1.202890
      46A     -1.169381    47A     -1.140872    48A     -1.106406
      49A     -1.069314    50A     -1.063627    51A     -1.041340
      52A     -1.038857    53A     -1.032063    54A     -1.007619
      55A     -1.005136    56A     -0.982733    57A     -0.947460
      58A     -0.931301    59A     -0.917816    60A     -0.894787
      61A     -0.871237    62A     -0.863500    63A     -0.853137
      64A     -0.848330    65A     -0.844296    66A     -0.837473
      67A     -0.827721    68A     -0.810735    69A     -0.780681
      70A     -0.749686    71A     -0.742926    72A     -0.730655
      73A     -0.716106    74A     -0.714899    75A     -0.696364
      76A     -0.684828    77A     -0.673901    78A     -0.665075
      79A     -0.661222    80A     -0.656248    81A     -0.651864
      82A     -0.648591    83A     -0.645609    84A     -0.633943
      85A     -0.630347    86A     -0.622590    87A     -0.613860
      88A     -0.611452    89A     -0.603482    90A     -0.602867
      91A     -0.601211    92A     -0.599282    93A     -0.595160
      94A     -0.591300    95A     -0.586170    96A     -0.582389
      97A     -0.581917    98A     -0.573865    99A     -0.570304
     100A     -0.549968   101A     -0.546147   102A     -0.544131
     103A     -0.535442   104A     -0.534125   105A     -0.531863
     106A     -0.521744   107A     -0.514884   108A     -0.511156
     109A     -0.510142   110A     -0.503404   111A     -0.499042
     112A     -0.496400   113A     -0.486637   114A     -0.469598
     115A     -0.459717   116A     -0.443309   117A     -0.433988
     118A     -0.431921   119A     -0.429959   120A     -0.423161
     121A     -0.406682   122A     -0.398217   123A     -0.389469
     124A     -0.383612   125A     -0.358799   126A     -0.353373
     127A     -0.349431   128A     -0.339049   129A     -0.320124
     130A     -0.315339   131A     -0.302562

  @DF-RHF Final Energy: -1572.33270084231117

   => Energetics <=

    Nuclear Repulsion Energy =           3644.1891260552797576
    One-Electron Energy =               -9386.5837340517773555
    Two-Electron Energy =                4170.0619071541859739
    Total Energy =                      -1572.3327008423111693

  Dipole Moment: [D]
     X:     0.9189      Y:     4.7849      Z:     0.2022     Total:     4.8765

  Basis Set: (6-311++G** AUX)
    Blend: AUG-CC-PVTZ-RI
	 Reference Energy          =   -1572.3327008423111693 [Eh]
	 Singles Energy            =      -0.0000000000000000 [Eh]
	 Same-Spin Energy          =      -1.4680167555569956 [Eh]
	 Opposite-Spin Energy      =      -4.0439076901249198 [Eh]
	 Correlation Energy        =      -5.5119244456819150 [Eh]
	 Total Energy              =   -1577.8446252879930398 [Eh]

	 ================> DF-SCS-MP2 Energies <==================
	-----------------------------------------------------------
	 SCS Same-Spin Scale       =       0.3333333333333333 [-]
	 SCS Opposite-Spin Scale   =       1.2000000000000000 [-]
	 SCS Same-Spin Energy      =      -0.4893389185189985 [Eh]
	 SCS Opposite-Spin Energy  =      -4.8526892281499032 [Eh]
	 SCS Correlation Energy    =      -5.3420281466689019 [Eh]
	 SCS Total Energy          =   -1577.6747289889801777 [Eh]
	-----------------------------------------------------------

*** Psi4 exiting successfully. Buy a developer a beer!
