                               Psi4 1.3.2 release

  ==> Input File <==

--------------------------------------------------------------------------
molecule {
0 1
 C   -0.279714    4.465300   -1.161758
 C    1.055972    4.371651   -0.747363
 C    1.675121    3.110076   -0.652151
 C    0.878498    2.001787   -1.032269
 N   -0.396164    2.070942   -1.438377
 C   -0.960725    3.287440   -1.490405
 C    3.095210    2.904068   -0.186561
 C    4.034789    3.923759    0.037595
 C    5.306295    3.502058    0.445910
 N    5.650026    2.230567    0.642247
 C    4.680067    1.319504    0.425362
 N    3.444952    1.621672    0.021462
 N    5.036624    0.000265    0.653233
 C    4.345340   -1.254033    0.477083
 C    5.081892   -2.477360    0.458505
 C    4.355899   -3.665171    0.261714
 C    2.968055   -3.715256    0.082147
 C    2.254614   -2.513561    0.126656
 C    2.954965   -1.313849    0.324751
 N    0.842925   -2.366132   -0.043169
 C   -0.139831   -3.251279   -0.422456
 C   -1.489036   -2.640460   -0.754246
 C   -1.621765   -1.396267   -1.394749
 C   -2.884343   -0.844682   -1.615659
 C   -4.056128   -1.507534   -1.207108
 C   -3.911237   -2.782432   -0.624863
 C   -2.651955   -3.355689   -0.426517
 C   -5.421140   -0.830240   -1.339430
 N   -5.858159    0.110059   -0.291327
 C   -5.250197    1.460199   -0.231826
 C   -4.034283    1.584057    0.723736
 N   -4.303040    1.103840    2.101089
 C   -4.980951    2.041513    3.003467
 C   -4.863598   -0.267962    2.027835
 C   -6.082731   -0.406020    1.078503
 O    0.036318   -4.458245   -0.476616
 C    6.590764   -2.542419    0.624840
 H   -0.781115    5.426466   -1.228204
 H    1.583091    5.283858   -0.478629
 H    1.297896    1.000418   -1.034206
 H   -1.998783    3.306655   -1.819421
 H    3.841064    4.979779   -0.106341
 H    6.113334    4.210137    0.632153
 H    6.009774   -0.042814    0.915469
 H    4.891302   -4.613374    0.234740
 H    2.446185   -4.649132   -0.086210
 H    2.402637   -0.390842    0.375758
 H    0.517791   -1.416319    0.071505
 H   -0.735765   -0.842887   -1.696759
 H   -2.944831    0.142886   -2.072886
 H   -4.793747   -3.330759   -0.296216
 H   -2.550606   -4.338453    0.027256
 H   -5.447295   -0.281063   -2.291228
 H   -6.190291   -1.613096   -1.400976
 H   -4.991878    1.828631   -1.281693
 H   -6.309278    2.384776    0.283679
 H   -3.638072    2.882270    0.785598
 H   -3.076943    0.938983    0.290711
 H   -5.999511    2.251263    2.657970
 H   -4.424324    2.984282    3.057550
 H   -5.030240    1.623391    4.015555
 H   -5.172826   -0.657397    3.208639
 H   -3.805580   -1.122891    1.561387
 H   -7.190688    0.379109    1.661007
 H   -6.459121   -1.543132    1.036972
 H    6.925888   -2.162054    1.600392
 H    7.097701   -1.951878   -0.143343
 H    6.979812   -3.560664    0.541924
}
memory 20GB
set_num_threads(6)
psi4_io.set_default_path("/scratch/bdw2292")
set freeze_core True
E, wfn = energy('mp2/6-311++G**',return_wfn=True)
oeprop(wfn,"WIBERG_LOWDIN_INDICES")
clean()
--------------------------------------------------------------------------

    Molecular point group: c1

    Geometry (in Angstrom), charge = 0, multiplicity = 1:

       Center              X                  Y                   Z               Mass
    ------------   -----------------  -----------------  -----------------  -----------------
         C           -0.357872830702     4.479186149940    -1.133852791734    12.000000000000
         C            0.977813169298     4.385537149940    -0.719457791734    12.000000000000
         C            1.596962169298     3.123962149940    -0.624245791734    12.000000000000
         C            0.800339169298     2.015673149940    -1.004363791734    12.000000000000
         N           -0.474322830702     2.084828149940    -1.410471791734    14.003074004430
         C           -1.038883830702     3.301326149940    -1.462499791734    12.000000000000
         C            3.017051169298     2.917954149940    -0.158655791734    12.000000000000
         C            3.956630169298     3.937645149940     0.065500208266    12.000000000000
         C            5.228136169298     3.515944149940     0.473815208266    12.000000000000
         N            5.571867169298     2.244453149940     0.670152208266    14.003074004430
         C            4.601908169298     1.333390149940     0.453267208266    12.000000000000
         N            3.366793169298     1.635558149940     0.049367208266    14.003074004430
         N            4.958465169298     0.014151149940     0.681138208266    14.003074004430
         C            4.267181169298    -1.240146850060     0.504988208266    12.000000000000
         C            5.003733169298    -2.463473850060     0.486410208266    12.000000000000
         C            4.277740169298    -3.651284850060     0.289619208266    12.000000000000
         C            2.889896169298    -3.701369850060     0.110052208266    12.000000000000
         C            2.176455169298    -2.499674850060     0.154561208266    12.000000000000
         C            2.876806169298    -1.299962850060     0.352656208266    12.000000000000
         N            0.764766169298    -2.352245850060    -0.015263791734    14.003074004430
         C           -0.217989830702    -3.237392850060    -0.394550791734    12.000000000000
         C           -1.567194830702    -2.626573850060    -0.726340791734    12.000000000000
         C           -1.699923830702    -1.382380850060    -1.366843791734    12.000000000000
         C           -2.962501830702    -0.830795850060    -1.587753791734    12.000000000000
         C           -4.134286830702    -1.493647850060    -1.179202791734    12.000000000000
         C           -3.989395830702    -2.768545850060    -0.596957791734    12.000000000000
         C           -2.730113830702    -3.341802850060    -0.398611791734    12.000000000000
         C           -5.499298830702    -0.816353850060    -1.311524791734    12.000000000000
         N           -5.936317830702     0.123945149940    -0.263421791734    14.003074004430
         C           -5.328355830702     1.474085149940    -0.203920791734    12.000000000000
         C           -4.112441830702     1.597943149940     0.751641208266    12.000000000000
         N           -4.381198830702     1.117726149940     2.128994208266    14.003074004430
         C           -5.059109830702     2.055399149940     3.031372208266    12.000000000000
         C           -4.941756830702    -0.254075850060     2.055740208266    12.000000000000
         C           -6.160889830702    -0.392133850060     1.106408208266    12.000000000000
         O           -0.041840830702    -4.444358850060    -0.448710791734    15.994914619570
         C            6.512605169298    -2.528532850060     0.652745208266    12.000000000000
         H           -0.859273830702     5.440352149940    -1.200298791734     1.007825032230
         H            1.504932169298     5.297744149940    -0.450723791734     1.007825032230
         H            1.219737169298     1.014304149940    -1.006300791734     1.007825032230
         H           -2.076941830702     3.320541149940    -1.791515791734     1.007825032230
         H            3.762905169298     4.993665149940    -0.078435791734     1.007825032230
         H            6.035175169298     4.224023149940     0.660058208266     1.007825032230
         H            5.931615169298    -0.028927850060     0.943374208266     1.007825032230
         H            4.813143169298    -4.599487850060     0.262645208266     1.007825032230
         H            2.368026169298    -4.635245850060    -0.058304791734     1.007825032230
         H            2.324478169298    -0.376955850060     0.403663208266     1.007825032230
         H            0.439632169298    -1.402432850060     0.099410208266     1.007825032230
         H           -0.813923830702    -0.829000850060    -1.668853791734     1.007825032230
         H           -3.022989830702     0.156772149940    -2.044980791734     1.007825032230
         H           -4.871905830702    -3.316872850060    -0.268310791734     1.007825032230
         H           -2.628764830702    -4.324566850060     0.055161208266     1.007825032230
         H           -5.525453830702    -0.267176850060    -2.263322791734     1.007825032230
         H           -6.268449830702    -1.599209850060    -1.373070791734     1.007825032230
         H           -5.070036830702     1.842517149940    -1.253787791734     1.007825032230
         H           -6.387436830702     2.398662149940     0.311584208266     1.007825032230
         H           -3.716230830702     2.896156149940     0.813503208266     1.007825032230
         H           -3.155101830702     0.952869149940     0.318616208266     1.007825032230
         H           -6.077669830702     2.265149149940     2.685875208266     1.007825032230
         H           -4.502482830702     2.998168149940     3.085455208266     1.007825032230
         H           -5.108398830702     1.637277149940     4.043460208266     1.007825032230
         H           -5.250984830702    -0.643510850060     3.236544208266     1.007825032230
         H           -3.883738830702    -1.109004850060     1.589292208266     1.007825032230
         H           -7.268846830702     0.392995149940     1.688912208266     1.007825032230
         H           -6.537279830702    -1.529245850060     1.064877208266     1.007825032230
         H            6.847729169298    -2.148167850060     1.628297208266     1.007825032230
         H            7.019542169298    -1.937991850060    -0.115437791734     1.007825032230
         H            6.901653169298    -3.546777850060     0.569829208266     1.007825032230

  Charge       = 0
  Multiplicity = 1
  Basis Set: 6-311++G**
    Blend: 6-311++G**
  Basis Set: (6-311++G** AUX)
    Blend: AUG-CC-PVTZ-JKFIT

    Orbital Energies [Eh]
    ---------------------

    Doubly Occupied:

       1A    -20.522319     2A    -15.604290     3A    -15.601126
       4A    -15.587268     5A    -15.573855     6A    -15.569479
       7A    -15.568753     8A    -15.554155     9A    -11.374937
      10A    -11.364491    11A    -11.334779    12A    -11.314097
      13A    -11.311716    14A    -11.309102    15A    -11.308263
      16A    -11.301892    17A    -11.301745    18A    -11.301082
      19A    -11.298938    20A    -11.292442    21A    -11.289856
      22A    -11.280769    23A    -11.278015    24A    -11.266232
      25A    -11.257144    26A    -11.256408    27A    -11.253050
      28A    -11.252925    29A    -11.250199    30A    -11.247316
      31A    -11.245926    32A    -11.245716    33A    -11.244895
      34A    -11.240201    35A    -11.233855    36A    -11.230175
      37A    -11.225315    38A     -1.386183    39A     -1.345166
      40A     -1.278737    41A     -1.251964    42A     -1.244720
      43A     -1.241889    44A     -1.209732    45A     -1.198868
      46A     -1.161802    47A     -1.139771    48A     -1.116281
      49A     -1.075568    50A     -1.059755    51A     -1.048590
      52A     -1.037566    53A     -1.023612    54A     -1.008131
      55A     -0.992915    56A     -0.976690    57A     -0.947120
      58A     -0.927721    59A     -0.926689    60A     -0.901087
      61A     -0.873149    62A     -0.865889    63A     -0.858348
      64A     -0.841933    65A     -0.834782    66A     -0.827256
      67A     -0.825181    68A     -0.805093    69A     -0.778207
      70A     -0.754522    71A     -0.738911    72A     -0.730781
      73A     -0.722133    74A     -0.703351    75A     -0.697156
      76A     -0.682886    77A     -0.673682    78A     -0.667550
      79A     -0.658285    80A     -0.655951    81A     -0.652095
      82A     -0.643273    83A     -0.637421    84A     -0.630025
      85A     -0.622830    86A     -0.618236    87A     -0.612870
      88A     -0.607465    89A     -0.607081    90A     -0.603043
      91A     -0.600591    92A     -0.596642    93A     -0.591385
      94A     -0.587175    95A     -0.581690    96A     -0.581010
      97A     -0.579706    98A     -0.574417    99A     -0.564964
     100A     -0.561631   101A     -0.547753   102A     -0.545063
     103A     -0.530310   104A     -0.529394   105A     -0.525221
     106A     -0.522717   107A     -0.514605   108A     -0.509468
     109A     -0.508638   110A     -0.506252   111A     -0.502493
     112A     -0.494196   113A     -0.484766   114A     -0.481325
     115A     -0.454832   116A     -0.451475   117A     -0.443678
     118A     -0.435417   119A     -0.427607   120A     -0.425341
     121A     -0.414409   122A     -0.409804   123A     -0.400499
     124A     -0.381927   125A     -0.373976   126A     -0.346556
     127A     -0.345209   128A     -0.342103   129A     -0.315181
     130A     -0.312418   131A     -0.290340

  @DF-RHF Final Energy: -1572.36528512095856

   => Energetics <=

    Nuclear Repulsion Energy =           3805.7695744692418884
    One-Electron Energy =               -9709.8400418532983167
    Two-Electron Energy =                4331.7051822630983224
    Total Energy =                      -1572.3652851209581058

  Dipole Moment: [D]
     X:     0.7610      Y:     6.8128      Z:    -0.0568     Total:     6.8554

  Basis Set: (6-311++G** AUX)
    Blend: AUG-CC-PVTZ-RI
	 Reference Energy          =   -1572.3652851209585606 [Eh]
	 Singles Energy            =      -0.0000000000000000 [Eh]
	 Same-Spin Energy          =      -1.4725501527170310 [Eh]
	 Opposite-Spin Energy      =      -4.0495736698246265 [Eh]
	 Correlation Energy        =      -5.5221238225416576 [Eh]
	 Total Energy              =   -1577.8874089435003043 [Eh]

	 ================> DF-SCS-MP2 Energies <==================
	-----------------------------------------------------------
	 SCS Same-Spin Scale       =       0.3333333333333333 [-]
	 SCS Opposite-Spin Scale   =       1.2000000000000000 [-]
	 SCS Same-Spin Energy      =      -0.4908500509056770 [Eh]
	 SCS Opposite-Spin Energy  =      -4.8594884037895518 [Eh]
	 SCS Correlation Energy    =      -5.3503384546952288 [Eh]
	 SCS Total Energy          =   -1577.7156235756538081 [Eh]
	-----------------------------------------------------------

*** Psi4 exiting successfully. Buy a developer a beer!
