                               Psi4 1.3.2 release

  ==> Input File <==

--------------------------------------------------------------------------
molecule {
0 1
 C   -0.787605    4.747047    0.372085
 C   -2.085628    4.259873    0.570720
 C   -2.384345    2.912923    0.284803
 C   -1.316308    2.139447   -0.233945
 N   -0.071889    2.592413   -0.444094
 C    0.180525    3.872424   -0.132114
 C   -3.753369    2.308049    0.471496
 C   -4.928766    3.048352    0.685138
 C   -6.112761    2.307152    0.762250
 N   -6.174156    0.981377    0.667844
 C   -4.995746    0.348305    0.491052
 N   -3.816637    0.965180    0.397381
 N   -5.088161   -1.032128    0.427130
 C   -4.134588   -2.096265    0.241123
 C   -4.552906   -3.450357    0.424542
 C   -3.603068   -4.458368    0.188546
 C   -2.275472   -4.214275   -0.182667
 C   -1.867999   -2.883519   -0.317366
 C   -2.803168   -1.857822   -0.117308
 N   -0.540864   -2.463653   -0.620789
 C   -0.064141   -1.525320   -1.507856
 C    1.432547   -1.285695   -1.558889
 C    2.397220   -2.283011   -1.339269
 C    3.759198   -1.973926   -1.386479
 C    4.209339   -0.670530   -1.670389
 C    3.232078    0.311950   -1.919444
 C    1.869142    0.011468   -1.876895
 C    5.699066   -0.322593   -1.688987
 N    6.354707    0.153530   -0.459123
 C    6.541440   -0.794603    0.662532
 C    5.422020   -0.758118    1.734350
 N    5.147702    0.594366    2.275728
 C    6.045321    1.072906    3.333536
 C    4.906087    1.521551    1.143399
 C    6.018011    1.498864    0.061591
 O   -0.813385   -0.876118   -2.219464
 C   -5.966114   -3.836838    0.828317
 H   -0.532221    5.777141    0.601791
 H   -2.836679    4.933557    0.976469
 H   -1.481889    1.110486   -0.535876
 H    1.203772    4.200743   -0.308928
 H   -4.970002    4.129056    0.743418
 H   -7.082644    2.783709    0.902306
 H   -6.052399   -1.302220    0.547790
 H   -3.895297   -5.500828    0.309377
 H   -1.574387   -5.025093   -0.338314
 H   -2.488027   -0.837789   -0.251288
 H    0.151684   -2.950790   -0.070502
 H    2.076296   -3.302227   -1.140104
 H    4.482407   -2.764679   -1.187715
 H    3.535169    1.335821   -2.135855
 H    1.129992    0.789136   -2.050742
 H    6.255170   -1.212313   -2.017424
 H    5.859206    0.451512   -2.452732
 H    6.692478   -1.915569    0.242624
 H    7.812097   -0.426576    1.332812
 H    5.722842   -1.558527    2.724174
 H    4.227676   -1.220609    1.172408
 H    7.063223    1.210191    2.951690
 H    6.071979    0.354539    4.161048
 H    5.685055    2.028791    3.730848
 H    4.754263    2.658557    1.580173
 H    3.678440    1.138807    0.561049
 H    7.254478    2.041196    0.687780
 H    5.744307    2.239139   -0.843615
 H   -6.722073   -3.501965    0.103644
 H   -6.230670   -3.399520    1.795171
 H   -6.096570   -4.917500    0.928326
}
memory 20GB
set_num_threads(6)
psi4_io.set_default_path("/scratch/bdw2292")
set freeze_core True
E, wfn = energy('mp2/6-311++G**',return_wfn=True)
oeprop(wfn,"WIBERG_LOWDIN_INDICES")
clean()
--------------------------------------------------------------------------

    Molecular point group: c1

    Geometry (in Angstrom), charge = 0, multiplicity = 1:

       Center              X                  Y                   Z               Mass
    ------------   -----------------  -----------------  -----------------  -----------------
         C           -0.724825251593     4.779927240963     0.395136501971    12.000000000000
         C           -2.022848251593     4.292753240963     0.593771501971    12.000000000000
         C           -2.321565251593     2.945803240963     0.307854501971    12.000000000000
         C           -1.253528251593     2.172327240963    -0.210893498029    12.000000000000
         N           -0.009109251593     2.625293240963    -0.421042498029    14.003074004430
         C            0.243304748407     3.905304240963    -0.109062498029    12.000000000000
         C           -3.690589251593     2.340929240963     0.494547501971    12.000000000000
         C           -4.865986251593     3.081232240963     0.708189501971    12.000000000000
         C           -6.049981251593     2.340032240963     0.785301501971    12.000000000000
         N           -6.111376251593     1.014257240963     0.690895501971    14.003074004430
         C           -4.932966251593     0.381185240963     0.514103501971    12.000000000000
         N           -3.753857251593     0.998060240963     0.420432501971    14.003074004430
         N           -5.025381251593    -0.999247759037     0.450181501971    14.003074004430
         C           -4.071808251593    -2.063384759037     0.264174501971    12.000000000000
         C           -4.490126251593    -3.417476759037     0.447593501971    12.000000000000
         C           -3.540288251593    -4.425487759037     0.211597501971    12.000000000000
         C           -2.212692251593    -4.181394759037    -0.159615498029    12.000000000000
         C           -1.805219251593    -2.850638759037    -0.294314498029    12.000000000000
         C           -2.740388251593    -1.824941759037    -0.094256498029    12.000000000000
         N           -0.478084251593    -2.430772759037    -0.597737498029    14.003074004430
         C           -0.001361251593    -1.492439759037    -1.484804498029    12.000000000000
         C            1.495326748407    -1.252814759037    -1.535837498029    12.000000000000
         C            2.459999748407    -2.250130759037    -1.316217498029    12.000000000000
         C            3.821977748407    -1.941045759037    -1.363427498029    12.000000000000
         C            4.272118748407    -0.637649759037    -1.647337498029    12.000000000000
         C            3.294857748407     0.344830240963    -1.896392498029    12.000000000000
         C            1.931921748407     0.044348240963    -1.853843498029    12.000000000000
         C            5.761845748407    -0.289712759037    -1.665935498029    12.000000000000
         N            6.417486748407     0.186410240963    -0.436071498029    14.003074004430
         C            6.604219748407    -0.761722759037     0.685583501971    12.000000000000
         C            5.484799748407    -0.725237759037     1.757401501971    12.000000000000
         N            5.210481748407     0.627246240963     2.298779501971    14.003074004430
         C            6.108100748407     1.105786240963     3.356587501971    12.000000000000
         C            4.968866748407     1.554431240963     1.166450501971    12.000000000000
         C            6.080790748407     1.531744240963     0.084642501971    12.000000000000
         O           -0.750605251593    -0.843237759037    -2.196412498029    15.994914619570
         C           -5.903334251593    -3.803957759037     0.851368501971    12.000000000000
         H           -0.469441251593     5.810021240963     0.624842501971     1.007825032230
         H           -2.773899251593     4.966437240963     0.999520501971     1.007825032230
         H           -1.419109251593     1.143366240963    -0.512824498029     1.007825032230
         H            1.266551748407     4.233623240963    -0.285876498029     1.007825032230
         H           -4.907222251593     4.161936240963     0.766469501971     1.007825032230
         H           -7.019864251593     2.816589240963     0.925357501971     1.007825032230
         H           -5.989619251593    -1.269339759037     0.570841501971     1.007825032230
         H           -3.832517251593    -5.467947759037     0.332428501971     1.007825032230
         H           -1.511607251593    -4.992212759037    -0.315262498029     1.007825032230
         H           -2.425247251593    -0.804908759037    -0.228236498029     1.007825032230
         H            0.214463748407    -2.917909759037    -0.047450498029     1.007825032230
         H            2.139075748407    -3.269346759037    -1.117052498029     1.007825032230
         H            4.545186748407    -2.731798759037    -1.164663498029     1.007825032230
         H            3.597948748407     1.368701240963    -2.112803498029     1.007825032230
         H            1.192771748407     0.822016240963    -2.027690498029     1.007825032230
         H            6.317949748407    -1.179432759037    -1.994372498029     1.007825032230
         H            5.921985748407     0.484392240963    -2.429680498029     1.007825032230
         H            6.755257748407    -1.882688759037     0.265675501971     1.007825032230
         H            7.874876748407    -0.393695759037     1.355863501971     1.007825032230
         H            5.785621748407    -1.525646759037     2.747225501971     1.007825032230
         H            4.290455748407    -1.187728759037     1.195459501971     1.007825032230
         H            7.126002748407     1.243071240963     2.974741501971     1.007825032230
         H            6.134758748407     0.387419240963     4.184099501971     1.007825032230
         H            5.747834748407     2.061671240963     3.753899501971     1.007825032230
         H            4.817042748407     2.691437240963     1.603224501971     1.007825032230
         H            3.741219748407     1.171687240963     0.584100501971     1.007825032230
         H            7.317257748407     2.074076240963     0.710831501971     1.007825032230
         H            5.807086748407     2.272019240963    -0.820563498029     1.007825032230
         H           -6.659293251593    -3.469084759037     0.126695501971     1.007825032230
         H           -6.167890251593    -3.366639759037     1.818222501971     1.007825032230
         H           -6.033790251593    -4.884619759037     0.951377501971     1.007825032230

  Charge       = 0
  Multiplicity = 1
  Basis Set: 6-311++G**
    Blend: 6-311++G**
  Basis Set: (6-311++G** AUX)
    Blend: AUG-CC-PVTZ-JKFIT

    Orbital Energies [Eh]
    ---------------------

    Doubly Occupied:

       1A    -20.517223     2A    -15.597823     3A    -15.595082
       4A    -15.571512     5A    -15.568493     6A    -15.564971
       7A    -15.560099     8A    -15.554318     9A    -11.366606
      10A    -11.363247    11A    -11.324725    12A    -11.312663
      13A    -11.312444    14A    -11.307818    15A    -11.304756
      16A    -11.300501    17A    -11.297309    18A    -11.288724
      19A    -11.286226    20A    -11.284493    21A    -11.277238
      22A    -11.276382    23A    -11.266625    24A    -11.256571
      25A    -11.255308    26A    -11.255053    27A    -11.253097
      28A    -11.250826    29A    -11.246466    30A    -11.246128
      31A    -11.243288    32A    -11.243176    33A    -11.242399
      34A    -11.241235    35A    -11.236675    36A    -11.234866
      37A    -11.223480    38A     -1.384554    39A     -1.336560
      40A     -1.263781    41A     -1.246974    42A     -1.243739
      43A     -1.235809    44A     -1.200136    45A     -1.198518
      46A     -1.159913    47A     -1.138656    48A     -1.104729
      49A     -1.066728    50A     -1.056971    51A     -1.038719
      52A     -1.034494    53A     -1.021772    54A     -1.006761
      55A     -0.989844    56A     -0.975360    57A     -0.945313
      58A     -0.926466    59A     -0.915429    60A     -0.894638
      61A     -0.865312    62A     -0.860800    63A     -0.847834
      64A     -0.839770    65A     -0.830031    66A     -0.824625
      67A     -0.820519    68A     -0.802846    69A     -0.779098
      70A     -0.749712    71A     -0.736261    72A     -0.724120
      73A     -0.714200    74A     -0.694675    75A     -0.691212
      76A     -0.676933    77A     -0.669130    78A     -0.659061
      79A     -0.655487    80A     -0.652780    81A     -0.647134
      82A     -0.639169    83A     -0.633642    84A     -0.629863
      85A     -0.621534    86A     -0.616021    87A     -0.611022
      88A     -0.603565    89A     -0.600396    90A     -0.595533
      91A     -0.592954    92A     -0.592515    93A     -0.584853
      94A     -0.583063    95A     -0.580569    96A     -0.576651
      97A     -0.575367    98A     -0.570696    99A     -0.563021
     100A     -0.548418   101A     -0.547885   102A     -0.530860
     103A     -0.529242   104A     -0.522097   105A     -0.520408
     106A     -0.516680   107A     -0.513828   108A     -0.508825
     109A     -0.505049   110A     -0.503952   111A     -0.501603
     112A     -0.491587   113A     -0.480687   114A     -0.472197
     115A     -0.458407   116A     -0.441169   117A     -0.433527
     118A     -0.428051   119A     -0.426895   120A     -0.415782
     121A     -0.405279   122A     -0.403529   123A     -0.388653
     124A     -0.380590   125A     -0.366896   126A     -0.344920
     127A     -0.338037   128A     -0.335796   129A     -0.316656
     130A     -0.311303   131A     -0.292423

  @DF-RHF Final Energy: -1572.34961088954242

   => Energetics <=

    Nuclear Repulsion Energy =           3772.5944339935481366
    One-Electron Energy =               -9644.6742724394662218
    Two-Electron Energy =                4299.7302275563752119
    Total Energy =                      -1572.3496108895424186

  Dipole Moment: [D]
     X:     0.0914      Y:     1.0965      Z:     2.7683     Total:     2.9790

  Basis Set: (6-311++G** AUX)
    Blend: AUG-CC-PVTZ-RI
	 Reference Energy          =   -1572.3496108895424186 [Eh]
	 Singles Energy            =      -0.0000000000000000 [Eh]
	 Same-Spin Energy          =      -1.4724606583070943 [Eh]
	 Opposite-Spin Energy      =      -4.0505410621247000 [Eh]
	 Correlation Energy        =      -5.5230017204317940 [Eh]
	 Total Energy              =   -1577.8726126099741123 [Eh]

	 ================> DF-SCS-MP2 Energies <==================
	-----------------------------------------------------------
	 SCS Same-Spin Scale       =       0.3333333333333333 [-]
	 SCS Opposite-Spin Scale   =       1.2000000000000000 [-]
	 SCS Same-Spin Energy      =      -0.4908202194356981 [Eh]
	 SCS Opposite-Spin Energy  =      -4.8606492745496395 [Eh]
	 SCS Correlation Energy    =      -5.3514694939853378 [Eh]
	 SCS Total Energy          =   -1577.7010803835278239 [Eh]
	-----------------------------------------------------------

*** Psi4 exiting successfully. Buy a developer a beer!
