                               Psi4 1.3.2 release

  ==> Input File <==

--------------------------------------------------------------------------
molecule {
0 1
 C   -0.860946    4.261125    0.000434
 C    0.514638    4.333439    0.258720
 C    1.308510    3.171686    0.181052
 C    0.623883    1.985246   -0.182739
 N   -0.687894    1.894462   -0.438441
 C   -1.411199    3.020872   -0.341566
 C    2.797560    3.160728    0.430178
 C    3.588414    4.288569    0.702942
 C    4.958386    4.046568    0.853474
 N    5.525195    2.846568    0.766517
 C    4.687217    1.816554    0.525354
 N    3.366707    1.941329    0.363262
 N    5.285341    0.566797    0.450012
 C    4.783308   -0.752497    0.152619
 C    5.693316   -1.783468   -0.231576
 C    5.146008   -3.040990   -0.539554
 C    3.778108   -3.333698   -0.482047
 C    2.903940   -2.323755   -0.068086
 C    3.418754   -1.053308    0.236634
 N    1.484146   -2.438497    0.057149
 C    0.610745   -3.435050   -0.311552
 C   -0.869237   -3.101502   -0.275730
 C   -1.367606   -1.812844   -0.525235
 C   -2.733267   -1.547710   -0.422136
 C   -3.666443   -2.548136   -0.096330
 C   -3.153592   -3.851319    0.084341
 C   -1.785745   -4.127278    0.003834
 C   -5.176836   -2.304758    0.033193
 N   -5.856820   -1.116769    0.603573
 C   -6.996735   -0.527297   -0.141862
 C   -6.670146    0.688419   -1.043919
 N   -5.959690    1.781623   -0.337168
 C   -6.791301    2.717247    0.428978
 C   -4.779844    1.209168    0.346386
 C   -5.096273   -0.016511    1.245068
 O    0.987426   -4.549038   -0.640559
 C    7.192800   -1.572679   -0.351559
 H   -1.490901    5.144024    0.055459
 H    0.937897    5.299929    0.520754
 H    1.177435    1.060010   -0.301427
 H   -2.474149    2.928028   -0.557862
 H    3.203640    5.298802    0.771236
 H    5.642569    4.871534    1.049693
 H    6.284827    0.663102    0.550118
 H    5.808800   -3.846135   -0.854105
 H    3.395019   -4.315042   -0.734850
 H    2.750586   -0.266686    0.549436
 H    1.037071   -1.603178    0.407453
 H   -0.685403   -1.008021   -0.790398
 H   -3.053489   -0.540301   -0.657019
 H   -3.827495   -4.676019    0.316987
 H   -1.406818   -5.133076    0.167598
 H   -5.570538   -2.359373   -0.993228
 H   -5.557211   -3.161320    0.609705
 H   -7.642960   -1.580473   -1.000935
 H   -8.030478   -0.062958    0.872164
 H   -7.508523    1.068102   -1.529175
 H   -5.670778    0.131593   -2.154838
 H   -7.279574    2.211832    1.269549
 H   -7.562692    3.152137   -0.216712
 H   -6.177231    3.537366    0.817712
 H   -4.203889    2.286208    1.299278
 H   -4.145898    1.045963   -0.285185
 H   -6.071704    0.578512    2.388210
 H   -4.253495   -0.389427    1.751341
 H    7.643162   -1.337786    0.623284
 H    7.429848   -0.743887   -1.033584
 H    7.720775   -2.455645   -0.737624
}
memory 20GB
set_num_threads(6)
psi4_io.set_default_path("/scratch/bdw2292")
set freeze_core True
E, wfn = energy('mp2/6-311++G**',return_wfn=True)
oeprop(wfn,"WIBERG_LOWDIN_INDICES")
clean()
--------------------------------------------------------------------------

    Molecular point group: c1

    Geometry (in Angstrom), charge = 0, multiplicity = 1:

       Center              X                  Y                   Z               Mass
    ------------   -----------------  -----------------  -----------------  -----------------
         C           -0.917441610598     4.300541260483    -0.036239032543    12.000000000000
         C            0.458142389402     4.372855260483     0.222046967457    12.000000000000
         C            1.252014389402     3.211102260483     0.144378967457    12.000000000000
         C            0.567387389402     2.024662260483    -0.219412032543    12.000000000000
         N           -0.744389610598     1.933878260483    -0.475114032543    14.003074004430
         C           -1.467694610598     3.060288260483    -0.378239032543    12.000000000000
         C            2.741064389402     3.200144260483     0.393504967457    12.000000000000
         C            3.531918389402     4.327985260483     0.666268967457    12.000000000000
         C            4.901890389402     4.085984260483     0.816800967457    12.000000000000
         N            5.468699389402     2.885984260483     0.729843967457    14.003074004430
         C            4.630721389402     1.855970260483     0.488680967457    12.000000000000
         N            3.310211389402     1.980745260483     0.326588967457    14.003074004430
         N            5.228845389402     0.606213260483     0.413338967457    14.003074004430
         C            4.726812389402    -0.713080739517     0.115945967457    12.000000000000
         C            5.636820389402    -1.744051739517    -0.268249032543    12.000000000000
         C            5.089512389402    -3.001573739517    -0.576227032543    12.000000000000
         C            3.721612389402    -3.294281739517    -0.518720032543    12.000000000000
         C            2.847444389402    -2.284338739517    -0.104759032543    12.000000000000
         C            3.362258389402    -1.013891739517     0.199960967457    12.000000000000
         N            1.427650389402    -2.399080739517     0.020475967457    14.003074004430
         C            0.554249389402    -3.395633739517    -0.348225032543    12.000000000000
         C           -0.925732610598    -3.062085739517    -0.312403032543    12.000000000000
         C           -1.424101610598    -1.773427739517    -0.561908032543    12.000000000000
         C           -2.789762610598    -1.508293739517    -0.458809032543    12.000000000000
         C           -3.722938610598    -2.508719739517    -0.133003032543    12.000000000000
         C           -3.210087610598    -3.811902739517     0.047667967457    12.000000000000
         C           -1.842240610598    -4.087861739517    -0.032839032543    12.000000000000
         C           -5.233331610598    -2.265341739517    -0.003480032543    12.000000000000
         N           -5.913315610598    -1.077352739517     0.566899967457    14.003074004430
         C           -7.053230610598    -0.487880739517    -0.178535032543    12.000000000000
         C           -6.726641610598     0.727835260483    -1.080592032543    12.000000000000
         N           -6.016185610598     1.821039260483    -0.373841032543    14.003074004430
         C           -6.847796610598     2.756663260483     0.392304967457    12.000000000000
         C           -4.836339610598     1.248584260483     0.309712967457    12.000000000000
         C           -5.152768610598     0.022905260483     1.208394967457    12.000000000000
         O            0.930930389402    -4.509621739517    -0.677232032543    15.994914619570
         C            7.136304389402    -1.533262739517    -0.388232032543    12.000000000000
         H           -1.547396610598     5.183440260483     0.018785967457     1.007825032230
         H            0.881401389402     5.339345260483     0.484080967457     1.007825032230
         H            1.120939389402     1.099426260483    -0.338100032543     1.007825032230
         H           -2.530644610598     2.967444260483    -0.594535032543     1.007825032230
         H            3.147144389402     5.338218260483     0.734562967457     1.007825032230
         H            5.586073389402     4.910950260483     1.013019967457     1.007825032230
         H            6.228331389402     0.702518260483     0.513444967457     1.007825032230
         H            5.752304389402    -3.806718739517    -0.890778032543     1.007825032230
         H            3.338523389402    -4.275625739517    -0.771523032543     1.007825032230
         H            2.694090389402    -0.227269739517     0.512762967457     1.007825032230
         H            0.980575389402    -1.563761739517     0.370779967457     1.007825032230
         H           -0.741898610598    -0.968604739517    -0.827071032543     1.007825032230
         H           -3.109984610598    -0.500884739517    -0.693692032543     1.007825032230
         H           -3.883990610598    -4.636602739517     0.280313967457     1.007825032230
         H           -1.463313610598    -5.093659739517     0.130924967457     1.007825032230
         H           -5.627033610598    -2.319956739517    -1.029901032543     1.007825032230
         H           -5.613706610598    -3.121903739517     0.573031967457     1.007825032230
         H           -7.699455610598    -1.541056739517    -1.037608032543     1.007825032230
         H           -8.086973610598    -0.023541739517     0.835490967457     1.007825032230
         H           -7.565018610598     1.107518260483    -1.565848032543     1.007825032230
         H           -5.727273610598     0.171009260483    -2.191511032543     1.007825032230
         H           -7.336069610598     2.251248260483     1.232875967457     1.007825032230
         H           -7.619187610598     3.191553260483    -0.253385032543     1.007825032230
         H           -6.233726610598     3.576782260483     0.781038967457     1.007825032230
         H           -4.260384610598     2.325624260483     1.262604967457     1.007825032230
         H           -4.202393610598     1.085379260483    -0.321858032543     1.007825032230
         H           -6.128199610598     0.617928260483     2.351536967457     1.007825032230
         H           -4.309990610598    -0.350010739517     1.714667967457     1.007825032230
         H            7.586666389402    -1.298369739517     0.586610967457     1.007825032230
         H            7.373352389402    -0.704470739517    -1.070257032543     1.007825032230
         H            7.664279389402    -2.416228739517    -0.774297032543     1.007825032230

  Charge       = 0
  Multiplicity = 1
  Basis Set: 6-311++G**
    Blend: 6-311++G**
  Basis Set: (6-311++G** AUX)
    Blend: AUG-CC-PVTZ-JKFIT

    Orbital Energies [Eh]
    ---------------------

    Doubly Occupied:

       1A    -20.522004     2A    -15.603790     3A    -15.601991
       4A    -15.586021     5A    -15.581425     6A    -15.573890
       7A    -15.569067     8A    -15.569010     9A    -11.375437
      10A    -11.364829    11A    -11.350345    12A    -11.334225
      13A    -11.318172    14A    -11.313800    15A    -11.312592
      16A    -11.301521    17A    -11.299941    18A    -11.298534
      19A    -11.293740    20A    -11.293209    21A    -11.288078
      22A    -11.282044    23A    -11.279133    24A    -11.270442
      25A    -11.263328    26A    -11.257231    27A    -11.256227
      28A    -11.254646    29A    -11.252126    30A    -11.251995
      31A    -11.249003    32A    -11.247271    33A    -11.246184
      34A    -11.240262    35A    -11.235383    36A    -11.231262
      37A    -11.225345    38A     -1.387035    39A     -1.344158
      40A     -1.276992    41A     -1.256139    42A     -1.252066
      43A     -1.241442    44A     -1.211072    45A     -1.209350
      46A     -1.165018    47A     -1.139896    48A     -1.114716
      49A     -1.074756    50A     -1.062799    51A     -1.047624
      52A     -1.038726    53A     -1.026722    54A     -1.019853
      55A     -1.008131    56A     -0.987137    57A     -0.952850
      58A     -0.935799    59A     -0.925465    60A     -0.900581
      61A     -0.876213    62A     -0.871675    63A     -0.857606
      64A     -0.853689    65A     -0.844478    66A     -0.840863
      67A     -0.827354    68A     -0.810920    69A     -0.779692
      70A     -0.753855    71A     -0.742571    72A     -0.739714
      73A     -0.731415    74A     -0.720775    75A     -0.698633
      76A     -0.682458    77A     -0.674015    78A     -0.667175
      79A     -0.659610    80A     -0.656430    81A     -0.651897
      82A     -0.651413    83A     -0.642316    84A     -0.637381
      85A     -0.631140    86A     -0.622459    87A     -0.620908
      88A     -0.614643    89A     -0.612598    90A     -0.607788
      91A     -0.602559    92A     -0.600904    93A     -0.595868
      94A     -0.595360    95A     -0.591329    96A     -0.584336
      97A     -0.580836    98A     -0.578895    99A     -0.572736
     100A     -0.563934   101A     -0.560264   102A     -0.547816
     103A     -0.543020   104A     -0.537093   105A     -0.524124
     106A     -0.518392   107A     -0.513875   108A     -0.509751
     109A     -0.508805   110A     -0.500620   111A     -0.495620
     112A     -0.485887   113A     -0.483937   114A     -0.479196
     115A     -0.460396   116A     -0.451698   117A     -0.442112
     118A     -0.428224   119A     -0.426164   120A     -0.418791
     121A     -0.414319   122A     -0.405245   123A     -0.399295
     124A     -0.385064   125A     -0.373053   126A     -0.347401
     127A     -0.345070   128A     -0.343934   129A     -0.321029
     130A     -0.314266   131A     -0.290444

  @DF-RHF Final Energy: -1572.20746618141811

   => Energetics <=

    Nuclear Repulsion Energy =           3730.2787694939538596
    One-Electron Energy =               -9557.7821278200699453
    Two-Electron Energy =                4255.2958921446970635
    Total Energy =                      -1572.2074661814185674

  Dipole Moment: [D]
     X:    -0.7216      Y:     6.6007      Z:     0.8490     Total:     6.6941

  Basis Set: (6-311++G** AUX)
    Blend: AUG-CC-PVTZ-RI
	 Reference Energy          =   -1572.2074661814181127 [Eh]
	 Singles Energy            =      -0.0000000000000000 [Eh]
	 Same-Spin Energy          =      -1.4699521627003667 [Eh]
	 Opposite-Spin Energy      =      -4.0500153168187918 [Eh]
	 Correlation Energy        =      -5.5199674795191580 [Eh]
	 Total Energy              =   -1577.7274336609373222 [Eh]

	 ================> DF-SCS-MP2 Energies <==================
	-----------------------------------------------------------
	 SCS Same-Spin Scale       =       0.3333333333333333 [-]
	 SCS Opposite-Spin Scale   =       1.2000000000000000 [-]
	 SCS Same-Spin Energy      =      -0.4899840542334555 [Eh]
	 SCS Opposite-Spin Energy  =      -4.8600183801825496 [Eh]
	 SCS Correlation Energy    =      -5.3500024344160053 [Eh]
	 SCS Total Energy          =   -1577.5574686158340683 [Eh]
	-----------------------------------------------------------

*** Psi4 exiting successfully. Buy a developer a beer!
