 Gaussian 09, Revision A.02,
 Gaussian 09:  EM64L-G09RevA.02 11-Jun-2009

 --------------------------------------------------
 #P opt=(,maxcycle=400) wB97XD/6-31G* MaxDisk=100GB
 --------------------------------------------------

 -----------------------------------------------------------------
 MOLECULE0 Rotatable Bond Optimization on g2-node38.bme.utexas.edu
 -----------------------------------------------------------------
 Symbolic Z-matrix:
 Charge =  0 Multiplicity = 1

 SCF Done:  E(RwB97XD) =  -1581.47649699     A.U. after   16 cycles
 SCF Done:  E(RwB97XD) =  -1581.54566824     A.U. after   13 cycles
 SCF Done:  E(RwB97XD) =  -1581.65735847     A.U. after   14 cycles
 SCF Done:  E(RwB97XD) =  -1581.70859727     A.U. after   14 cycles
 SCF Done:  E(RwB97XD) =  -1581.72591066     A.U. after   17 cycles
 SCF Done:  E(RwB97XD) =  -1581.72099316     A.U. after   16 cycles
 SCF Done:  E(RwB97XD) =  -1581.74057865     A.U. after   14 cycles
 SCF Done:  E(RwB97XD) =  -1581.75253815     A.U. after   14 cycles
 SCF Done:  E(RwB97XD) =  -1581.75773838     A.U. after   14 cycles
 SCF Done:  E(RwB97XD) =  -1581.76049687     A.U. after   14 cycles
 SCF Done:  E(RwB97XD) =  -1581.76426450     A.U. after   12 cycles
 SCF Done:  E(RwB97XD) =  -1581.76427607     A.U. after   12 cycles
 SCF Done:  E(RwB97XD) =  -1581.76427879     A.U. after   11 cycles
 SCF Done:  E(RwB97XD) =  -1581.76428308     A.U. after   10 cycles
 SCF Done:  E(RwB97XD) =  -1581.76428352     A.U. after   11 cycles
 SCF Done:  E(RwB97XD) =  -1581.76428409     A.U. after   10 cycles
 SCF Done:  E(RwB97XD) =  -1581.76428530     A.U. after    8 cycles
 SCF Done:  E(RwB97XD) =  -1581.76428546     A.U. after    7 cycles
 SCF Done:  E(RwB97XD) =  -1581.76428549     A.U. after    7 cycles
 SCF Done:  E(RwB97XD) =  -1581.76428539     A.U. after    6 cycles
 Optimization completed.
    -- Stationary point found.

                         Standard orientation:
 ---------------------------------------------------------------------
 Center     Atomic      Atomic             Coordinates (Angstroms)
 Number     Number       Type             X           Y           Z
 ---------------------------------------------------------------------
      1          6           0        0.099303    4.429978   -0.568117
      2          6           0        1.450021    4.328975   -0.257900
      3          6           0        2.095779    3.107251   -0.439872
      4          6           0        1.333790    2.044093   -0.942789
      5          7           0        0.037132    2.123581   -1.234454
      6          6           0       -0.562855    3.302229   -1.041945
      7          6           0        3.519699    2.879530   -0.088408
      8          6           0        4.471388    3.890875    0.010709
      9          6           0        5.754305    3.490179    0.381394
     10          7           0        6.095545    2.230560    0.617864
     11          6           0        5.104125    1.328468    0.471344
     12          7           0        3.842943    1.605056    0.143426
     13          7           0        5.471312    0.029496    0.692384
     14          6           0        4.738985   -1.159047    0.507181
     15          6           0        5.453849   -2.364315    0.359664
     16          6           0        4.719898   -3.528876    0.154503
     17          6           0        3.329733   -3.552317    0.071384
     18          6           0        2.644152   -2.349758    0.225160
     19          6           0        3.348718   -1.170536    0.470785
     20          7           0        1.248641   -2.207883    0.128358
     21          6           0        0.305646   -3.128642   -0.250645
     22          6           0       -1.067978   -2.549604   -0.440397
     23          6           0       -1.295368   -1.221654   -0.818308
     24          6           0       -2.590414   -0.747997   -0.975496
     25          6           0       -3.685992   -1.584561   -0.756625
     26          6           0       -3.454770   -2.911061   -0.390916
     27          6           0       -2.160174   -3.394977   -0.246762
     28          6           0       -5.095585   -1.066297   -0.949622
     29          7           0       -5.252896    0.294543   -0.453411
     30          6           0       -5.128043    0.412355    1.002265
     31          6           0       -6.380246   -0.068036    1.750151
     32          7           0       -7.609794    0.579340    1.294429
     33          6           0       -7.767274    1.936583    1.785990
     34          6           0       -7.730976    0.464124   -0.157405
     35          6           0       -6.479946    0.947952   -0.907035
     36          8           0        0.536683   -4.316924   -0.407221
     37          6           0        6.960478   -2.393000    0.405881
     38          1           0       -0.436500    5.363025   -0.430363
     39          1           0        1.983119    5.184334    0.147162
     40          1           0        1.813604    1.084821   -1.117286
     41          1           0       -1.624288    3.341975   -1.275250
     42          1           0        4.249155    4.930024   -0.197705
     43          1           0        6.549267    4.225586    0.488388
     44          1           0        6.456711   -0.062954    0.888900
     45          1           0        5.258998   -4.465588    0.037290
     46          1           0        2.790689   -4.470773   -0.112709
     47          1           0        2.813830   -0.241574    0.601002
     48          1           0        0.906798   -1.276932    0.314112
     49          1           0       -0.478951   -0.536573   -1.033229
     50          1           0       -2.758925    0.285595   -1.260114
     51          1           0       -4.298167   -3.574706   -0.214678
     52          1           0       -1.976884   -4.429527    0.024644
     53          1           0       -5.315211   -1.042356   -2.025211
     54          1           0       -5.803756   -1.791873   -0.510898
     55          1           0       -4.245320   -0.146476    1.329144
     56          1           0       -4.940352    1.469525    1.232031
     57          1           0       -6.267863    0.101307    2.827070
     58          1           0       -6.501114   -1.150633    1.609457
     59          1           0       -7.000197    2.656215    1.448269
     60          1           0       -7.750523    1.924279    2.881091
     61          1           0       -8.743328    2.321074    1.470831
     62          1           0       -8.614851    1.023697   -0.485104
     63          1           0       -7.914309   -0.592855   -0.394458
     64          1           0       -6.354519    2.028576   -0.755587
     65          1           0       -6.592085    0.786611   -1.985386
     66          1           0        7.353556   -2.068081    1.379105
     67          1           0        7.404804   -1.747999   -0.363098
     68          1           0        7.331506   -3.406700    0.235168
 ---------------------------------------------------------------------

 The electronic state is 1-A.
 Alpha  occ. eigenvalues --  -19.23142 -14.49088 -14.48248 -14.46430 -14.45934
 Alpha  occ. eigenvalues --  -14.45554 -14.44103 -14.43655 -10.41589 -10.39893
 Alpha  occ. eigenvalues --  -10.37440 -10.36188 -10.34998 -10.34761 -10.34485
 Alpha  occ. eigenvalues --  -10.33945 -10.33923 -10.33369 -10.32607 -10.32385
 Alpha  occ. eigenvalues --  -10.31700 -10.31601 -10.31417 -10.31278 -10.31178
 Alpha  occ. eigenvalues --  -10.31107 -10.30685 -10.30535 -10.30245 -10.30151
 Alpha  occ. eigenvalues --  -10.29925 -10.29873 -10.29807 -10.29418 -10.29301
 Alpha  occ. eigenvalues --  -10.28760 -10.28208  -1.13267  -1.12141  -1.06043
 Alpha  occ. eigenvalues --   -1.04469  -1.04387  -1.03398  -1.00553  -1.00018
 Alpha  occ. eigenvalues --   -0.95689  -0.94520  -0.92873  -0.89563  -0.87952
 Alpha  occ. eigenvalues --   -0.87191  -0.86212  -0.85604  -0.84127  -0.83620
 Alpha  occ. eigenvalues --   -0.81645  -0.79635  -0.78096  -0.77977  -0.76153
 Alpha  occ. eigenvalues --   -0.73638  -0.73527  -0.72817  -0.72487  -0.70963
 Alpha  occ. eigenvalues --   -0.69940  -0.69635  -0.67835  -0.66216  -0.64977
 Alpha  occ. eigenvalues --   -0.63774  -0.63199  -0.61958  -0.61584  -0.59869
 Alpha  occ. eigenvalues --   -0.58660  -0.58473  -0.57426  -0.56519  -0.55949
 Alpha  occ. eigenvalues --   -0.55693  -0.55463  -0.55033  -0.54956  -0.54325
 Alpha  occ. eigenvalues --   -0.53736  -0.53605  -0.52982  -0.52468  -0.51999
 Alpha  occ. eigenvalues --   -0.51530  -0.51388  -0.51068  -0.50968  -0.50440
 Alpha  occ. eigenvalues --   -0.50263  -0.49886  -0.49565  -0.49366  -0.47997
 Alpha  occ. eigenvalues --   -0.47838  -0.47128  -0.46880  -0.46466  -0.46050
 Alpha  occ. eigenvalues --   -0.45872  -0.45630  -0.44381  -0.43794  -0.43288
 Alpha  occ. eigenvalues --   -0.43210  -0.42640  -0.42006  -0.41949  -0.41510
 Alpha  occ. eigenvalues --   -0.41213  -0.40757  -0.39820  -0.38005  -0.37401
 Alpha  occ. eigenvalues --   -0.35506  -0.35075  -0.33814  -0.33285  -0.33130
 Alpha  occ. eigenvalues --   -0.32461  -0.32293  -0.31030  -0.28993  -0.26964
 Alpha  occ. eigenvalues --   -0.25781
 Alpha virt. eigenvalues --   -0.00142   0.03120   0.03718   0.04761   0.07061
 Alpha virt. eigenvalues --    0.07525   0.08521   0.10522   0.14996   0.15192
 Alpha virt. eigenvalues --    0.15560   0.16397   0.17338   0.17525   0.18783

 Mulliken atomic charges:
              1
     1  C   -0.199124
     2  C   -0.155375
     3  C    0.033463
     4  C    0.007509
     5  N   -0.433876
     6  C    0.030961
     7  C    0.296769
     8  C   -0.254349
     9  C    0.048128
    10  N   -0.492591
    11  C    0.708716
    12  N   -0.567687
    13  N   -0.796334
    14  C    0.288246
    15  C    0.120595
    16  C   -0.240208
    17  C   -0.190692
    18  C    0.356098
    19  C   -0.265308
    20  N   -0.766396
    21  C    0.596839
    22  C    0.018240
    23  C   -0.214560
    24  C   -0.199804
    25  C    0.113494
    26  C   -0.222878
    27  C   -0.181352
    28  C   -0.219863
    29  N   -0.402536
    30  C   -0.192329
    31  C   -0.187531
    32  N   -0.384171
    33  C   -0.349857
    34  C   -0.187276
    35  C   -0.184781
    36  O   -0.517555
    37  C   -0.607039
    38  H    0.185022
    39  H    0.184991
    40  H    0.200690
    41  H    0.186594
    42  H    0.179893
    43  H    0.188684
    44  H    0.368471
    45  H    0.160398
    46  H    0.215721
    47  H    0.194156
    48  H    0.359391
    49  H    0.187566
    50  H    0.185478
    51  H    0.162916
    52  H    0.195708
    53  H    0.179144
    54  H    0.139768
    55  H    0.175447
    56  H    0.158567
    57  H    0.160228
    58  H    0.162584
    59  H    0.133388
    60  H    0.169606
    61  H    0.168543
    62  H    0.158645
    63  H    0.163072
    64  H    0.159934
    65  H    0.159190
    66  H    0.177214
    67  H    0.183306
    68  H    0.190102
 Sum of Mulliken atomic charges =   0.00000

 Dipole moment (field-independent basis, Debye):
    X=              0.0151    Y=              6.8611    Z=              0.7360  Tot=              6.9005
 Quadrupole moment (field-independent basis, Debye-Ang):
   XX=           -190.9272   YY=           -200.8693   ZZ=           -219.8829
   XY=              1.9734   XZ=              4.7840   YZ=             -1.9341

 Normal termination of Gaussian 09 at Wed Mar 11 01:26:16 2020.
