                               Psi4 1.3.2 release

  ==> Input File <==

--------------------------------------------------------------------------
molecule {
0 1
 C   -0.224490    4.272254    0.984016
 C   -1.606995    4.040334    0.957054
 C   -2.097960    2.741905    0.715110
 C   -1.113190    1.739363    0.531925
 N    0.211149    1.936843    0.557146
 C    0.638684    3.189605    0.777790
 C   -3.566948    2.396140    0.671144
 C   -4.627265    3.278814    0.930896
 C   -5.909241    2.720329    0.868808
 N   -6.164514    1.448022    0.575783
 C   -5.087548    0.676668    0.318458
 N   -3.825042    1.112435    0.355324
 N   -5.358722   -0.646939   -0.001969
 C   -4.514722   -1.796132   -0.224982
 C   -5.062903   -3.110055   -0.117549
 C   -4.182826   -4.189766   -0.308198
 C   -2.819963   -4.046512   -0.596385
 C   -2.306570   -2.753127   -0.734722
 C   -3.160732   -1.654692   -0.550178
 N   -0.950280   -2.409715   -1.034610
 C    0.198458   -3.165013   -1.056767
 C    1.527519   -2.437010   -1.160735
 C    1.729765   -1.114680   -0.731594
 C    2.973171   -0.498944   -0.882932
 C    4.082644   -1.181085   -1.411325
 C    3.869100   -2.516669   -1.814573
 C    2.625595   -3.140046   -1.682539
 C    5.464375   -0.549706   -1.614798
 N    6.122444    0.429525   -0.728545
 C    6.541929   -0.040561    0.613195
 C    5.641906    0.342163    1.814309
 N    5.332155    1.790817    1.885910
 C    6.357932    2.651171    2.487646
 C    4.769807    2.211253    0.583368
 C    5.655214    1.834088   -0.633743
 O    0.171118   -4.385337   -1.007076
 C   -6.518318   -3.382823    0.221439
 H    0.175563    5.265566    1.165229
 H   -2.274114    4.884057    1.116152
 H   -1.417043    0.708912    0.384077
 H    1.718569    3.327114    0.799308
 H   -4.499628    4.322122    1.192117
 H   -6.785468    3.334672    1.073798
 H   -6.352003   -0.813508    0.059698
 H   -4.561863   -5.206911   -0.215087
 H   -2.171697   -4.905015   -0.723047
 H   -2.772263   -0.654491   -0.652114
 H   -0.802010   -1.420539   -1.173139
 H    0.907582   -0.550181   -0.297984
 H    3.043357    0.545044   -0.603085
 H    4.687213   -3.095162   -2.244312
 H    2.481870   -4.171772   -1.994320
 H    6.176695   -1.386994   -1.673809
 H    5.427780   -0.051218   -2.595815
 H    6.666661   -1.559174    0.614622
 H    7.926005    0.555062    0.896043
 H    6.009371    0.016953    2.711072
 H    4.270355   -0.401112    1.570263
 H    7.268809    2.663047    1.878745
 H    6.610482    2.290263    3.491232
 H    5.982834    3.676319    2.583868
 H    4.667443    3.743372    0.573156
 H    3.921384    1.888383    0.532086
 H    7.009342    2.714385   -0.404151
 H    5.241905    2.163272   -1.566361
 H   -7.191097   -2.987913   -0.553165
 H   -6.803366   -2.917500    1.175761
 H   -6.742785   -4.454413    0.316359
}
memory 20GB
set_num_threads(6)
psi4_io.set_default_path("/scratch/bdw2292")
set freeze_core True
E, wfn = energy('mp2/6-311++G**',return_wfn=True)
oeprop(wfn,"WIBERG_LOWDIN_INDICES")
clean()
--------------------------------------------------------------------------

    Molecular point group: c1

    Geometry (in Angstrom), charge = 0, multiplicity = 1:

       Center              X                  Y                   Z               Mass
    ------------   -----------------  -----------------  -----------------  -----------------
         C           -0.158188924699     4.379883677651     0.981241703252    12.000000000000
         C           -1.540693924699     4.147963677651     0.954279703252    12.000000000000
         C           -2.031658924699     2.849534677651     0.712335703252    12.000000000000
         C           -1.046888924699     1.846992677651     0.529150703252    12.000000000000
         N            0.277450075301     2.044472677651     0.554371703252    14.003074004430
         C            0.704985075301     3.297234677651     0.775015703252    12.000000000000
         C           -3.500646924699     2.503769677651     0.668369703252    12.000000000000
         C           -4.560963924699     3.386443677651     0.928121703252    12.000000000000
         C           -5.842939924699     2.827958677651     0.866033703252    12.000000000000
         N           -6.098212924699     1.555651677651     0.573008703252    14.003074004430
         C           -5.021246924699     0.784297677651     0.315683703252    12.000000000000
         N           -3.758740924699     1.220064677651     0.352549703252    14.003074004430
         N           -5.292420924699    -0.539309322349    -0.004743296748    14.003074004430
         C           -4.448420924699    -1.688502322349    -0.227756296748    12.000000000000
         C           -4.996601924699    -3.002425322349    -0.120323296748    12.000000000000
         C           -4.116524924699    -4.082136322349    -0.310972296748    12.000000000000
         C           -2.753661924699    -3.938882322349    -0.599159296748    12.000000000000
         C           -2.240268924699    -2.645497322349    -0.737496296748    12.000000000000
         C           -3.094430924699    -1.547062322349    -0.552952296748    12.000000000000
         N           -0.883978924699    -2.302085322349    -1.037384296748    14.003074004430
         C            0.264759075301    -3.057383322349    -1.059541296748    12.000000000000
         C            1.593820075301    -2.329380322349    -1.163509296748    12.000000000000
         C            1.796066075301    -1.007050322349    -0.734368296748    12.000000000000
         C            3.039472075301    -0.391314322349    -0.885706296748    12.000000000000
         C            4.148945075301    -1.073455322349    -1.414099296748    12.000000000000
         C            3.935401075301    -2.409039322349    -1.817347296748    12.000000000000
         C            2.691896075301    -3.032416322349    -1.685313296748    12.000000000000
         C            5.530676075301    -0.442076322349    -1.617572296748    12.000000000000
         N            6.188745075301     0.537154677651    -0.731319296748    14.003074004430
         C            6.608230075301     0.067068677651     0.610420703252    12.000000000000
         C            5.708207075301     0.449792677651     1.811534703252    12.000000000000
         N            5.398456075301     1.898446677651     1.883135703252    14.003074004430
         C            6.424233075301     2.758800677651     2.484871703252    12.000000000000
         C            4.836108075301     2.318882677651     0.580593703252    12.000000000000
         C            5.721515075301     1.941717677651    -0.636517296748    12.000000000000
         O            0.237419075301    -4.277707322349    -1.009850296748    15.994914619570
         C           -6.452016924699    -3.275193322349     0.218664703252    12.000000000000
         H            0.241864075301     5.373195677651     1.162454703252     1.007825032230
         H           -2.207812924699     4.991686677651     1.113377703252     1.007825032230
         H           -1.350741924699     0.816541677651     0.381302703252     1.007825032230
         H            1.784870075301     3.434743677651     0.796533703252     1.007825032230
         H           -4.433326924699     4.429751677651     1.189342703252     1.007825032230
         H           -6.719166924699     3.442301677651     1.071023703252     1.007825032230
         H           -6.285701924699    -0.705878322349     0.056923703252     1.007825032230
         H           -4.495561924699    -5.099281322349    -0.217861296748     1.007825032230
         H           -2.105395924699    -4.797385322349    -0.725821296748     1.007825032230
         H           -2.705961924699    -0.546861322349    -0.654888296748     1.007825032230
         H           -0.735708924699    -1.312909322349    -1.175913296748     1.007825032230
         H            0.973883075301    -0.442551322349    -0.300758296748     1.007825032230
         H            3.109658075301     0.652673677651    -0.605859296748     1.007825032230
         H            4.753514075301    -2.987532322349    -2.247086296748     1.007825032230
         H            2.548171075301    -4.064142322349    -1.997094296748     1.007825032230
         H            6.242996075301    -1.279364322349    -1.676583296748     1.007825032230
         H            5.494081075301     0.056411677651    -2.598589296748     1.007825032230
         H            6.732962075301    -1.451544322349     0.611847703252     1.007825032230
         H            7.992306075301     0.662691677651     0.893268703252     1.007825032230
         H            6.075672075301     0.124582677651     2.708297703252     1.007825032230
         H            4.336656075301    -0.293482322349     1.567488703252     1.007825032230
         H            7.335110075301     2.770676677651     1.875970703252     1.007825032230
         H            6.676783075301     2.397892677651     3.488457703252     1.007825032230
         H            6.049135075301     3.783948677651     2.581093703252     1.007825032230
         H            4.733744075301     3.851001677651     0.570381703252     1.007825032230
         H            3.987685075301     1.996012677651     0.529311703252     1.007825032230
         H            7.075643075301     2.822014677651    -0.406925296748     1.007825032230
         H            5.308206075301     2.270901677651    -1.569135296748     1.007825032230
         H           -7.124795924699    -2.880283322349    -0.555939296748     1.007825032230
         H           -6.737064924699    -2.809870322349     1.172986703252     1.007825032230
         H           -6.676483924699    -4.346783322349     0.313584703252     1.007825032230

  Charge       = 0
  Multiplicity = 1
  Basis Set: 6-311++G**
    Blend: 6-311++G**
  Basis Set: (6-311++G** AUX)
    Blend: AUG-CC-PVTZ-JKFIT

    Orbital Energies [Eh]
    ---------------------

    Doubly Occupied:

       1A    -20.519566     2A    -15.603940     3A    -15.600972
       4A    -15.587592     5A    -15.586773     6A    -15.574571
       7A    -15.569132     8A    -15.564044     9A    -11.375783
      10A    -11.363581    11A    -11.347423    12A    -11.334770
      13A    -11.319780    14A    -11.314436    15A    -11.306142
      16A    -11.301063    17A    -11.300926    18A    -11.300872
      19A    -11.294000    20A    -11.292641    21A    -11.289506
      22A    -11.284199    23A    -11.280532    24A    -11.265281
      25A    -11.262911    26A    -11.255201    27A    -11.252942
      28A    -11.252820    29A    -11.251392    30A    -11.249241
      31A    -11.247257    32A    -11.245431    33A    -11.244074
      34A    -11.239948    35A    -11.235400    36A    -11.230723
      37A    -11.225040    38A     -1.385539    39A     -1.344448
      40A     -1.278792    41A     -1.255567    42A     -1.250860
      43A     -1.241026    44A     -1.210933    45A     -1.209844
      46A     -1.162314    47A     -1.139518    48A     -1.115802
      49A     -1.075355    50A     -1.061042    51A     -1.048639
      52A     -1.038449    53A     -1.023723    54A     -1.018763
      55A     -1.007891    56A     -0.985695    57A     -0.951419
      58A     -0.934734    59A     -0.926484    60A     -0.900934
      61A     -0.873128    62A     -0.872487    63A     -0.858764
      64A     -0.856325    65A     -0.841786    66A     -0.839158
      67A     -0.827325    68A     -0.810512    69A     -0.779265
      70A     -0.754120    71A     -0.741061    72A     -0.739161
      73A     -0.730885    74A     -0.721635    75A     -0.698230
      76A     -0.683009    77A     -0.674296    78A     -0.667838
      79A     -0.658449    80A     -0.653342    81A     -0.651807
      82A     -0.649687    83A     -0.637980    84A     -0.635508
      85A     -0.633912    86A     -0.626452    87A     -0.620805
      88A     -0.613440    89A     -0.611018    90A     -0.607016
      91A     -0.602547    92A     -0.600185    93A     -0.596578
      94A     -0.591678    95A     -0.590767    96A     -0.584207
      97A     -0.581237    98A     -0.579508    99A     -0.572501
     100A     -0.561524   101A     -0.549643   102A     -0.547302
     103A     -0.544184   104A     -0.535831   105A     -0.526627
     106A     -0.522866   107A     -0.513387   108A     -0.508781
     109A     -0.504201   110A     -0.497249   111A     -0.494839
     112A     -0.485018   113A     -0.484140   114A     -0.479403
     115A     -0.459013   116A     -0.452228   117A     -0.443549
     118A     -0.427675   119A     -0.425504   120A     -0.420774
     121A     -0.414769   122A     -0.400414   123A     -0.399121
     124A     -0.381875   125A     -0.373556   126A     -0.346199
     127A     -0.343920   128A     -0.341021   129A     -0.321448
     130A     -0.314120   131A     -0.290419

  @DF-RHF Final Energy: -1572.21078781915389

   => Energetics <=

    Nuclear Repulsion Energy =           3736.4005336647001059
    One-Electron Energy =               -9570.1908837443097582
    Two-Electron Energy =                4261.5795622604555319
    Total Energy =                      -1572.2107878191536656

  Dipole Moment: [D]
     X:    -1.6093      Y:     6.4297      Z:     0.7597     Total:     6.6715

  Basis Set: (6-311++G** AUX)
    Blend: AUG-CC-PVTZ-RI
	 Reference Energy          =   -1572.2107878191538930 [Eh]
	 Singles Energy            =      -0.0000000000000000 [Eh]
	 Same-Spin Energy          =      -1.4709630119022257 [Eh]
	 Opposite-Spin Energy      =      -4.0513712156987687 [Eh]
	 Correlation Energy        =      -5.5223342276009948 [Eh]
	 Total Energy              =   -1577.7331220467549429 [Eh]

	 ================> DF-SCS-MP2 Energies <==================
	-----------------------------------------------------------
	 SCS Same-Spin Scale       =       0.3333333333333333 [-]
	 SCS Opposite-Spin Scale   =       1.2000000000000000 [-]
	 SCS Same-Spin Energy      =      -0.4903210039674085 [Eh]
	 SCS Opposite-Spin Energy  =      -4.8616454588385221 [Eh]
	 SCS Correlation Energy    =      -5.3519664628059305 [Eh]
	 SCS Total Energy          =   -1577.5627542819597693 [Eh]
	-----------------------------------------------------------

*** Psi4 exiting successfully. Buy a developer a beer!
