 Gaussian 09, Revision A.02,
 Gaussian 09:  EM64L-G09RevA.02 11-Jun-2009

 --------------------------------------------------
 #P opt=(,maxcycle=400) wB97XD/6-31G* MaxDisk=100GB
 --------------------------------------------------

 -----------------------------------------------------------------
 MOLECULE0 Rotatable Bond Optimization on g2-node38.bme.utexas.edu
 -----------------------------------------------------------------
 Symbolic Z-matrix:
 Charge =  0 Multiplicity = 1

 SCF Done:  E(RwB97XD) =  -1581.45835108     A.U. after   16 cycles
 SCF Done:  E(RwB97XD) =  -1581.53060999     A.U. after   13 cycles
 SCF Done:  E(RwB97XD) =  -1581.64719267     A.U. after   14 cycles
 SCF Done:  E(RwB97XD) =  -1581.70489378     A.U. after   14 cycles
 SCF Done:  E(RwB97XD) =  -1581.72217819     A.U. after   17 cycles
 SCF Done:  E(RwB97XD) =  -1581.71786258     A.U. after   16 cycles
 SCF Done:  E(RwB97XD) =  -1581.73664779     A.U. after   14 cycles
 SCF Done:  E(RwB97XD) =  -1581.74908801     A.U. after   14 cycles
 SCF Done:  E(RwB97XD) =  -1581.75429084     A.U. after   14 cycles
 SCF Done:  E(RwB97XD) =  -1581.75750355     A.U. after   14 cycles
 SCF Done:  E(RwB97XD) =  -1581.76422124     A.U. after   13 cycles
 SCF Done:  E(RwB97XD) =  -1581.76426679     A.U. after   12 cycles
 SCF Done:  E(RwB97XD) =  -1581.76427012     A.U. after   12 cycles
 SCF Done:  E(RwB97XD) =  -1581.76427849     A.U. after   10 cycles
 SCF Done:  E(RwB97XD) =  -1581.76428361     A.U. after   12 cycles
 SCF Done:  E(RwB97XD) =  -1581.76428415     A.U. after    8 cycles
 SCF Done:  E(RwB97XD) =  -1581.76428506     A.U. after   11 cycles
 SCF Done:  E(RwB97XD) =  -1581.76428510     A.U. after    8 cycles
 SCF Done:  E(RwB97XD) =  -1581.76428506     A.U. after    7 cycles
 SCF Done:  E(RwB97XD) =  -1581.76428536     A.U. after    6 cycles
 Optimization completed.
    -- Stationary point found.

                         Standard orientation:
 ---------------------------------------------------------------------
 Center     Atomic      Atomic             Coordinates (Angstroms)
 Number     Number       Type             X           Y           Z
 ---------------------------------------------------------------------
      1          6           0        0.099209    4.430179   -0.567941
      2          6           0        1.449946    4.329143   -0.257818
      3          6           0        2.095613    3.107349   -0.439655
      4          6           0        1.333527    2.044173   -0.942384
      5          7           0        0.036856    2.123701   -1.233976
      6          6           0       -0.563047    3.302409   -1.041579
      7          6           0        3.519563    2.879585   -0.088317
      8          6           0        4.471348    3.890876    0.010448
      9          6           0        5.754315    3.490151    0.380923
     10          7           0        6.095525    2.230539    0.617438
     11          6           0        5.104025    1.328485    0.471230
     12          7           0        3.842768    1.605111    0.143622
     13          7           0        5.471203    0.029542    0.692503
     14          6           0        4.738934   -1.159036    0.507298
     15          6           0        5.453856   -2.364254    0.359636
     16          6           0        4.719962   -3.528837    0.154416
     17          6           0        3.329791   -3.552352    0.071383
     18          6           0        2.644157   -2.349848    0.225313
     19          6           0        3.348665   -1.170602    0.470997
     20          7           0        1.248642   -2.208061    0.128560
     21          6           0        0.305704   -3.128795   -0.250672
     22          6           0       -1.067915   -2.549723   -0.440385
     23          6           0       -1.295196   -1.221738   -0.818217
     24          6           0       -2.590197   -0.747962   -0.975407
     25          6           0       -3.685833   -1.584479   -0.756629
     26          6           0       -3.454724   -2.911017   -0.390984
     27          6           0       -2.160169   -3.395039   -0.246825
     28          6           0       -5.095366   -1.066140   -0.949789
     29          7           0       -5.252743    0.294638   -0.453423
     30          6           0       -5.128023    0.412236    1.002266
     31          6           0       -6.380277   -0.068283    1.749965
     32          7           0       -7.609780    0.579158    1.294246
     33          6           0       -7.767319    1.936336    1.785976
     34          6           0       -7.730845    0.464129   -0.157600
     35          6           0       -6.479771    0.948071   -0.907058
     36          8           0        0.536793   -4.317038   -0.407423
     37          6           0        6.960490   -2.392852    0.405732
     38          1           0       -0.436537    5.363271   -0.430265
     39          1           0        1.983127    5.184525    0.147084
     40          1           0        1.813277    1.084850   -1.116774
     41          1           0       -1.624493    3.342182   -1.274825
     42          1           0        4.249137    4.930005   -0.198086
     43          1           0        6.549354    4.225515    0.487637
     44          1           0        6.456677   -0.062882    0.888664
     45          1           0        5.259105   -4.465508    0.037079
     46          1           0        2.790791   -4.470827   -0.112755
     47          1           0        2.813743   -0.241676    0.601319
     48          1           0        0.906733   -1.277159    0.314430
     49          1           0       -0.478700   -0.536737   -1.033074
     50          1           0       -2.758610    0.285656   -1.259984
     51          1           0       -4.298189   -3.574582   -0.214778
     52          1           0       -1.976957   -4.429626    0.024494
     53          1           0       -5.314776   -1.042072   -2.025422
     54          1           0       -5.803660   -1.791713   -0.511260
     55          1           0       -4.245296   -0.146593    1.329129
     56          1           0       -4.940412    1.469344    1.232181
     57          1           0       -6.267959    0.100892    2.826936
     58          1           0       -6.501126   -1.150896    1.609083
     59          1           0       -7.000236    2.656018    1.448376
     60          1           0       -7.750629    1.923889    2.881074
     61          1           0       -8.743362    2.320838    1.470801
     62          1           0       -8.614703    1.023722   -0.485303
     63          1           0       -7.914146   -0.592832   -0.394813
     64          1           0       -6.354392    2.028677   -0.755467
     65          1           0       -6.591843    0.786878   -1.985442
     66          1           0        7.353627   -2.067916    1.378925
     67          1           0        7.404718   -1.747818   -0.363279
     68          1           0        7.331576   -3.406522    0.234967
 ---------------------------------------------------------------------

 The electronic state is 1-A.
 Alpha  occ. eigenvalues --  -19.23142 -14.49088 -14.48248 -14.46429 -14.45934
 Alpha  occ. eigenvalues --  -14.45554 -14.44103 -14.43655 -10.41589 -10.39893
 Alpha  occ. eigenvalues --  -10.37440 -10.36188 -10.34998 -10.34761 -10.34485
 Alpha  occ. eigenvalues --  -10.33945 -10.33923 -10.33369 -10.32607 -10.32385
 Alpha  occ. eigenvalues --  -10.31700 -10.31600 -10.31417 -10.31278 -10.31178
 Alpha  occ. eigenvalues --  -10.31107 -10.30685 -10.30535 -10.30245 -10.30151
 Alpha  occ. eigenvalues --  -10.29925 -10.29873 -10.29807 -10.29418 -10.29301
 Alpha  occ. eigenvalues --  -10.28761 -10.28208  -1.13268  -1.12141  -1.06043
 Alpha  occ. eigenvalues --   -1.04470  -1.04387  -1.03398  -1.00553  -1.00018
 Alpha  occ. eigenvalues --   -0.95690  -0.94520  -0.92873  -0.89563  -0.87952
 Alpha  occ. eigenvalues --   -0.87191  -0.86212  -0.85604  -0.84128  -0.83620
 Alpha  occ. eigenvalues --   -0.81645  -0.79635  -0.78096  -0.77977  -0.76153
 Alpha  occ. eigenvalues --   -0.73637  -0.73527  -0.72817  -0.72487  -0.70963
 Alpha  occ. eigenvalues --   -0.69940  -0.69635  -0.67835  -0.66216  -0.64977
 Alpha  occ. eigenvalues --   -0.63774  -0.63199  -0.61958  -0.61584  -0.59869
 Alpha  occ. eigenvalues --   -0.58660  -0.58473  -0.57426  -0.56519  -0.55949
 Alpha  occ. eigenvalues --   -0.55693  -0.55463  -0.55032  -0.54956  -0.54325
 Alpha  occ. eigenvalues --   -0.53736  -0.53605  -0.52982  -0.52468  -0.51999
 Alpha  occ. eigenvalues --   -0.51530  -0.51388  -0.51068  -0.50968  -0.50440
 Alpha  occ. eigenvalues --   -0.50263  -0.49886  -0.49565  -0.49367  -0.47997
 Alpha  occ. eigenvalues --   -0.47838  -0.47128  -0.46880  -0.46466  -0.46050
 Alpha  occ. eigenvalues --   -0.45872  -0.45630  -0.44381  -0.43794  -0.43288
 Alpha  occ. eigenvalues --   -0.43210  -0.42640  -0.42006  -0.41949  -0.41510
 Alpha  occ. eigenvalues --   -0.41213  -0.40757  -0.39820  -0.38005  -0.37401
 Alpha  occ. eigenvalues --   -0.35506  -0.35075  -0.33814  -0.33285  -0.33130
 Alpha  occ. eigenvalues --   -0.32461  -0.32293  -0.31031  -0.28993  -0.26964
 Alpha  occ. eigenvalues --   -0.25780
 Alpha virt. eigenvalues --   -0.00142   0.03120   0.03718   0.04761   0.07060
 Alpha virt. eigenvalues --    0.07525   0.08521   0.10521   0.14996   0.15192
 Alpha virt. eigenvalues --    0.15560   0.16397   0.17338   0.17525   0.18783

 Mulliken atomic charges:
              1
     1  C   -0.199125
     2  C   -0.155376
     3  C    0.033461
     4  C    0.007521
     5  N   -0.433882
     6  C    0.030962
     7  C    0.296764
     8  C   -0.254344
     9  C    0.048131
    10  N   -0.492589
    11  C    0.708690
    12  N   -0.567681
    13  N   -0.796297
    14  C    0.288219
    15  C    0.120604
    16  C   -0.240209
    17  C   -0.190694
    18  C    0.356090
    19  C   -0.265309
    20  N   -0.766380
    21  C    0.596822
    22  C    0.018246
    23  C   -0.214561
    24  C   -0.199797
    25  C    0.113483
    26  C   -0.222870
    27  C   -0.181355
    28  C   -0.219862
    29  N   -0.402536
    30  C   -0.192323
    31  C   -0.187536
    32  N   -0.384163
    33  C   -0.349858
    34  C   -0.187279
    35  C   -0.184780
    36  O   -0.517545
    37  C   -0.607047
    38  H    0.185021
    39  H    0.184992
    40  H    0.200681
    41  H    0.186594
    42  H    0.179893
    43  H    0.188685
    44  H    0.368473
    45  H    0.160398
    46  H    0.215721
    47  H    0.194156
    48  H    0.359387
    49  H    0.187561
    50  H    0.185488
    51  H    0.162918
    52  H    0.195705
    53  H    0.179146
    54  H    0.139763
    55  H    0.175447
    56  H    0.158575
    57  H    0.160225
    58  H    0.162574
    59  H    0.133389
    60  H    0.169608
    61  H    0.168545
    62  H    0.158645
    63  H    0.163069
    64  H    0.159934
    65  H    0.159188
    66  H    0.177220
    67  H    0.183302
    68  H    0.190103
 Sum of Mulliken atomic charges =   0.00000

 Dipole moment (field-independent basis, Debye):
    X=              0.0152    Y=              6.8612    Z=              0.7352  Tot=              6.9005
 Quadrupole moment (field-independent basis, Debye-Ang):
   XX=           -190.9271   YY=           -200.8689   ZZ=           -219.8823
   XY=              1.9742   XZ=              4.7790   YZ=             -1.9361

 Normal termination of Gaussian 09 at Wed Mar 11 01:25:45 2020.
