 Gaussian 09, Revision A.02,
 Gaussian 09:  EM64L-G09RevA.02 11-Jun-2009

 --------------------------------------------------
 #P opt=(,maxcycle=400) wB97XD/6-31G* MaxDisk=100GB
 --------------------------------------------------

 --------------------------------------------------------------
 MOLECULE0 Rotatable Bond Optimization on node37.bme.utexas.edu
 --------------------------------------------------------------
 Symbolic Z-matrix:
 Charge =  0 Multiplicity = 1

 SCF Done:  E(RwB97XD) =  -1581.50383768     A.U. after   16 cycles
 SCF Done:  E(RwB97XD) =  -1581.56423077     A.U. after   13 cycles
 SCF Done:  E(RwB97XD) =  -1581.66421846     A.U. after   14 cycles
 SCF Done:  E(RwB97XD) =  -1581.71723697     A.U. after   14 cycles
 SCF Done:  E(RwB97XD) =  -1581.74186169     A.U. after   15 cycles
 SCF Done:  E(RwB97XD) =  -1581.74671041     A.U. after   16 cycles
 SCF Done:  E(RwB97XD) =  -1581.74718980     A.U. after   17 cycles
 SCF Done:  E(RwB97XD) =  -1581.75108226     A.U. after   17 cycles
 SCF Done:  E(RwB97XD) =  -1581.75432694     A.U. after   15 cycles
 SCF Done:  E(RwB97XD) =  -1581.75492652     A.U. after   17 cycles
 SCF Done:  E(RwB97XD) =  -1581.75555785     A.U. after   10 cycles
 SCF Done:  E(RwB97XD) =  -1581.75556076     A.U. after    9 cycles
 SCF Done:  E(RwB97XD) =  -1581.75556291     A.U. after   10 cycles
 SCF Done:  E(RwB97XD) =  -1581.75556451     A.U. after   11 cycles
 SCF Done:  E(RwB97XD) =  -1581.75556551     A.U. after    8 cycles
 SCF Done:  E(RwB97XD) =  -1581.75556628     A.U. after    8 cycles
 SCF Done:  E(RwB97XD) =  -1581.75556598     A.U. after    7 cycles
 SCF Done:  E(RwB97XD) =  -1581.75556557     A.U. after    7 cycles
 SCF Done:  E(RwB97XD) =  -1581.75556524     A.U. after    7 cycles
 SCF Done:  E(RwB97XD) =  -1581.75556506     A.U. after    7 cycles
 Optimization completed.
    -- Stationary point found.

                         Standard orientation:
 ---------------------------------------------------------------------
 Center     Atomic      Atomic             Coordinates (Angstroms)
 Number     Number       Type             X           Y           Z
 ---------------------------------------------------------------------
      1          6           0       -7.803692    2.475240   -2.165271
      2          6           0       -7.432153    2.204170   -0.855439
      3          6           0       -6.221596    1.554049   -0.614086
      4          6           0       -5.445720    1.199565   -1.725597
      5          7           0       -5.789019    1.456437   -2.986798
      6          6           0       -6.949550    2.084114   -3.191266
      7          6           0       -5.748278    1.222879    0.752282
      8          6           0       -6.239063    1.849435    1.898754
      9          6           0       -5.707141    1.423525    3.110674
     10          7           0       -4.782372    0.477016    3.216018
     11          6           0       -4.371046   -0.050367    2.047783
     12          7           0       -4.803309    0.281828    0.830114
     13          7           0       -3.419609   -1.026457    2.150487
     14          6           0       -2.718551   -1.617274    1.066405
     15          6           0       -3.371574   -2.429096    0.127840
     16          6           0       -2.584039   -2.989245   -0.877863
     17          6           0       -1.210440   -2.799634   -0.964904
     18          6           0       -0.575152   -2.009423   -0.005059
     19          6           0       -1.342581   -1.417190    0.998906
     20          7           0        0.812453   -1.767484    0.017719
     21          6           0        1.773428   -2.217915   -0.852355
     22          6           0        3.177789   -1.820601   -0.494451
     23          6           0        3.605576   -1.593620    0.815880
     24          6           0        4.928158   -1.250660    1.071826
     25          6           0        5.849844   -1.115236    0.032935
     26          6           0        5.420763   -1.378938   -1.270389
     27          6           0        4.104349   -1.729719   -1.534286
     28          6           0        7.282359   -0.680430    0.307966
     29          7           0        7.578938    0.741548    0.305605
     30          6           0        7.083905    1.538719    1.421479
     31          6           0        5.724674    2.207138    1.154354
     32          7           0        5.696486    2.965559   -0.093122
     33          6           0        6.409875    4.229039   -0.028335
     34          6           0        6.111461    2.109668   -1.201689
     35          6           0        7.478346    1.444239   -0.968535
     36          8           0        1.537515   -2.879982   -1.849540
     37          6           0       -4.847119   -2.708647    0.194760
     38          1           0       -8.741268    2.973009   -2.389148
     39          1           0       -8.090687    2.478749   -0.036679
     40          1           0       -4.501432    0.685223   -1.570353
     41          1           0       -7.208834    2.279683   -4.229563
     42          1           0       -6.976611    2.640974    1.863049
     43          1           0       -6.040206    1.869367    4.046002
     44          1           0       -3.021412   -1.108883    3.074478
     45          1           0       -3.064915   -3.619330   -1.621660
     46          1           0       -0.633704   -3.256341   -1.756039
     47          1           0       -0.871997   -0.775220    1.740973
     48          1           0        1.120586   -1.112520    0.720267
     49          1           0        2.924241   -1.727158    1.652490
     50          1           0        5.250922   -1.090676    2.098049
     51          1           0        6.131807   -1.307740   -2.090286
     52          1           0        3.773476   -1.946147   -2.544673
     53          1           0        7.589708   -1.074278    1.284663
     54          1           0        7.937250   -1.148737   -0.437704
     55          1           0        7.028448    0.904036    2.313527
     56          1           0        7.830411    2.317945    1.636499
     57          1           0        5.467160    2.879391    1.981963
     58          1           0        4.942253    1.441312    1.094117
     59          1           0        7.495897    4.152726    0.155332
     60          1           0        5.980139    4.841764    0.771605
     61          1           0        6.270173    4.765151   -0.973213
     62          1           0        6.136742    2.708372   -2.120239
     63          1           0        5.342290    1.339416   -1.332299
     64          1           0        8.262136    2.215733   -0.992124
     65          1           0        7.704364    0.742047   -1.778971
     66          1           0       -5.417103   -1.891334   -0.259151
     67          1           0       -5.183927   -2.801459    1.232366
     68          1           0       -5.087985   -3.637055   -0.331044
 ---------------------------------------------------------------------

 The electronic state is 1-A.
 Alpha  occ. eigenvalues --  -19.24197 -14.49483 -14.48030 -14.45069 -14.44887
 Alpha  occ. eigenvalues --  -14.44838 -14.44027 -14.43421 -10.41046 -10.40705
 Alpha  occ. eigenvalues --  -10.36597 -10.35387 -10.34759 -10.34099 -10.33831
 Alpha  occ. eigenvalues --  -10.33387 -10.32963 -10.32833 -10.32208 -10.32067
 Alpha  occ. eigenvalues --  -10.31944 -10.31701 -10.31617 -10.31594 -10.31502
 Alpha  occ. eigenvalues --  -10.31284 -10.31103 -10.31071 -10.30977 -10.30905
 Alpha  occ. eigenvalues --  -10.30864 -10.30811 -10.30409 -10.30288 -10.29503
 Alpha  occ. eigenvalues --  -10.28956 -10.28084  -1.14416  -1.11316  -1.04760
 Alpha  occ. eigenvalues --   -1.04558  -1.04232  -1.03279  -0.99948  -0.99735
 Alpha  occ. eigenvalues --   -0.96977  -0.94687  -0.91915  -0.88784  -0.88412
 Alpha  occ. eigenvalues --   -0.86432  -0.86265  -0.85908  -0.85371  -0.83578
 Alpha  occ. eigenvalues --   -0.82271  -0.79405  -0.77917  -0.77122  -0.75255
 Alpha  occ. eigenvalues --   -0.73645  -0.73245  -0.72567  -0.71475  -0.71174
 Alpha  occ. eigenvalues --   -0.71069  -0.70359  -0.68221  -0.66378  -0.64700
 Alpha  occ. eigenvalues --   -0.64102  -0.63671  -0.62373  -0.60911  -0.59639
 Alpha  occ. eigenvalues --   -0.58655  -0.57736  -0.57207  -0.56379  -0.56221
 Alpha  occ. eigenvalues --   -0.55487  -0.55329  -0.55132  -0.54756  -0.54365
 Alpha  occ. eigenvalues --   -0.53986  -0.53802  -0.53130  -0.53048  -0.52522
 Alpha  occ. eigenvalues --   -0.51701  -0.51427  -0.51188  -0.50916  -0.50496
 Alpha  occ. eigenvalues --   -0.50118  -0.49552  -0.49116  -0.48915  -0.48759
 Alpha  occ. eigenvalues --   -0.47120  -0.46864  -0.46664  -0.46462  -0.45648
 Alpha  occ. eigenvalues --   -0.45245  -0.45039  -0.44939  -0.44198  -0.43929
 Alpha  occ. eigenvalues --   -0.42968  -0.42926  -0.42035  -0.41947  -0.41354
 Alpha  occ. eigenvalues --   -0.41318  -0.40475  -0.39709  -0.37907  -0.36532
 Alpha  occ. eigenvalues --   -0.34346  -0.34309  -0.33935  -0.33790  -0.32870
 Alpha  occ. eigenvalues --   -0.32731  -0.32231  -0.31210  -0.29653  -0.28046
 Alpha  occ. eigenvalues --   -0.25352
 Alpha virt. eigenvalues --    0.00746   0.02462   0.04357   0.05521   0.05855
 Alpha virt. eigenvalues --    0.07568   0.08083   0.09837   0.13887   0.15095
 Alpha virt. eigenvalues --    0.15704   0.17138   0.17201   0.18596   0.18709

 Mulliken atomic charges:
              1
     1  C   -0.196535
     2  C   -0.158527
     3  C    0.026801
     4  C    0.004671
     5  N   -0.421324
     6  C    0.024737
     7  C    0.284978
     8  C   -0.248464
     9  C    0.042720
    10  N   -0.491727
    11  C    0.668749
    12  N   -0.538193
    13  N   -0.764049
    14  C    0.254193
    15  C    0.164281
    16  C   -0.244340
    17  C   -0.183991
    18  C    0.353571
    19  C   -0.271990
    20  N   -0.771906
    21  C    0.603624
    22  C    0.017496
    23  C   -0.208847
    24  C   -0.218873
    25  C    0.159949
    26  C   -0.222418
    27  C   -0.174856
    28  C   -0.264794
    29  N   -0.380299
    30  C   -0.185424
    31  C   -0.180633
    32  N   -0.384960
    33  C   -0.350682
    34  C   -0.182810
    35  C   -0.187218
    36  O   -0.511734
    37  C   -0.571632
    38  H    0.179648
    39  H    0.179788
    40  H    0.212389
    41  H    0.179126
    42  H    0.176072
    43  H    0.183818
    44  H    0.360832
    45  H    0.166938
    46  H    0.222666
    47  H    0.155684
    48  H    0.355751
    49  H    0.168067
    50  H    0.165282
    51  H    0.168569
    52  H    0.203296
    53  H    0.170653
    54  H    0.172423
    55  H    0.151137
    56  H    0.161727
    57  H    0.152879
    58  H    0.162908
    59  H    0.136018
    60  H    0.167344
    61  H    0.168909
    62  H    0.155469
    63  H    0.169408
    64  H    0.161673
    65  H    0.154158
    66  H    0.200554
    67  H    0.177164
    68  H    0.170107
 Sum of Mulliken atomic charges =   0.00000

 Dipole moment (field-independent basis, Debye):
    X=             -0.3188    Y=              2.9832    Z=              3.6441  Tot=              4.7202
 Quadrupole moment (field-independent basis, Debye-Ang):
   XX=           -170.4858   YY=           -216.5906   ZZ=           -211.5208
   XY=            -10.3113   XZ=             -1.0461   YZ=             -2.4597

 Normal termination of Gaussian 09 at Tue Mar  3 11:35:36 2020.
