                               Psi4 1.3.2 release

  ==> Input File <==

--------------------------------------------------------------------------
molecule {
0 1
 C   -1.206723    5.022393   -0.137051
 C   -2.500788    4.547241    0.116381
 C   -2.734463    3.161163    0.211258
 C   -1.592428    2.333657    0.077866
 N   -0.348977    2.767537   -0.166333
 C   -0.169625    4.093023   -0.276572
 C   -4.098910    2.551245    0.418658
 C   -5.278757    3.270057    0.674127
 C   -6.444982    2.505510    0.799561
 N   -6.489502    1.180080    0.683041
 C   -5.312104    0.571677    0.434154
 N   -4.147272    1.210333    0.309802
 N   -5.374622   -0.804687    0.302827
 C   -4.377489   -1.832840    0.137439
 C   -4.716246   -3.191868    0.417022
 C   -3.707277   -4.155481    0.251417
 C   -2.399364   -3.856970   -0.147294
 C   -2.078262   -2.523820   -0.425238
 C   -3.077102   -1.544741   -0.296880
 N   -0.787473   -2.039294   -0.824657
 C    0.440173   -2.658228   -0.886845
 C    1.684528   -1.829602   -1.171290
 C    2.882724   -2.545278   -1.349037
 C    4.080356   -1.881952   -1.623851
 C    4.138299   -0.479257   -1.721316
 C    2.933658    0.228190   -1.553720
 C    1.729263   -0.428187   -1.285748
 C    5.463042    0.240803   -1.979446
 N    6.305676    0.654096   -0.844116
 C    6.991638   -0.390637   -0.049042
 C    6.225310   -0.847101    1.219658
 N    5.819994    0.264510    2.112897
 C    6.844318    0.773034    3.033292
 C    5.084774    1.272710    1.312149
 C    5.838792    1.745204    0.041784
 O    0.547738   -3.866890   -0.735518
 C   -6.096405   -3.631562    0.876542
 H   -1.005741    6.085711   -0.229645
 H   -3.309405    5.268334    0.207575
 H   -1.679984    1.257859    0.188788
 H    0.852594    4.411699   -0.475922
 H   -5.331118    4.346975    0.777800
 H   -7.412810    2.963347    1.002842
 H   -6.322073   -1.111117    0.463997
 H   -3.935259   -5.202070    0.451086
 H   -1.643392   -4.627064   -0.233776
 H   -2.843050   -0.520231   -0.532699
 H   -0.779694   -1.058359   -1.059393
 H    2.863069   -3.629433   -1.266358
 H    4.989165   -2.470659   -1.745327
 H    2.931485    1.316271   -1.613476
 H    0.830958    0.164327   -1.134848
 H    6.084040   -0.405152   -2.616399
 H    5.250560    1.148308   -2.561944
 H    7.253995   -1.308272   -0.724593
 H    8.275255    0.176261    0.389643
 H    6.916198   -1.672254    1.877892
 H    5.041179   -1.513393    0.832903
 H    7.671966    1.234373    2.482994
 H    7.240621   -0.044121    3.647503
 H    6.409751    1.519028    3.708851
 H    4.804639    2.276456    2.061967
 H    3.867122    0.684272    0.936176
 H    7.048914    2.477183    0.495828
 H    5.203685    2.505739   -0.556232
 H   -6.879459   -3.405552    0.138650
 H   -6.378243   -3.135256    1.809342
 H   -6.155681   -4.706556    1.066487
}
memory 20GB
set_num_threads(6)
psi4_io.set_default_path("/scratch/bdw2292")
set freeze_core True
E, wfn = energy('mp2/6-311++G**',return_wfn=True)
oeprop(wfn,"WIBERG_LOWDIN_INDICES")
clean()
--------------------------------------------------------------------------

    Molecular point group: c1

    Geometry (in Angstrom), charge = 0, multiplicity = 1:

       Center              X                  Y                   Z               Mass
    ------------   -----------------  -----------------  -----------------  -----------------
         C           -1.127976759666     5.037220209742    -0.103671266941    12.000000000000
         C           -2.422041759666     4.562068209742     0.149760733059    12.000000000000
         C           -2.655716759666     3.175990209742     0.244637733059    12.000000000000
         C           -1.513681759666     2.348484209742     0.111245733059    12.000000000000
         N           -0.270230759666     2.782364209742    -0.132953266941    14.003074004430
         C           -0.090878759666     4.107850209742    -0.243192266941    12.000000000000
         C           -4.020163759666     2.566072209742     0.452037733059    12.000000000000
         C           -5.200010759666     3.284884209742     0.707506733059    12.000000000000
         C           -6.366235759666     2.520337209742     0.832940733059    12.000000000000
         N           -6.410755759666     1.194907209742     0.716420733059    14.003074004430
         C           -5.233357759666     0.586504209742     0.467533733059    12.000000000000
         N           -4.068525759666     1.225160209742     0.343181733059    14.003074004430
         N           -5.295875759666    -0.789859790258     0.336206733059    14.003074004430
         C           -4.298742759666    -1.818012790258     0.170818733059    12.000000000000
         C           -4.637499759666    -3.177040790258     0.450401733059    12.000000000000
         C           -3.628530759666    -4.140653790258     0.284796733059    12.000000000000
         C           -2.320617759666    -3.842142790258    -0.113914266941    12.000000000000
         C           -1.999515759666    -2.508992790258    -0.391858266941    12.000000000000
         C           -2.998355759666    -1.529913790258    -0.263500266941    12.000000000000
         N           -0.708726759666    -2.024466790258    -0.791277266941    14.003074004430
         C            0.518919240334    -2.643400790258    -0.853465266941    12.000000000000
         C            1.763274240334    -1.814774790258    -1.137910266941    12.000000000000
         C            2.961470240334    -2.530450790258    -1.315657266941    12.000000000000
         C            4.159102240334    -1.867124790258    -1.590471266941    12.000000000000
         C            4.217045240334    -0.464429790258    -1.687936266941    12.000000000000
         C            3.012404240334     0.243017209742    -1.520340266941    12.000000000000
         C            1.808009240334    -0.413359790258    -1.252368266941    12.000000000000
         C            5.541788240334     0.255630209742    -1.946066266941    12.000000000000
         N            6.384422240334     0.668923209742    -0.810736266941    14.003074004430
         C            7.070384240334    -0.375809790258    -0.015662266941    12.000000000000
         C            6.304056240334    -0.832273790258     1.253037733059    12.000000000000
         N            5.898740240334     0.279337209742     2.146276733059    14.003074004430
         C            6.923064240334     0.787861209742     3.066671733059    12.000000000000
         C            5.163520240334     1.287537209742     1.345528733059    12.000000000000
         C            5.917538240334     1.760031209742     0.075163733059    12.000000000000
         O            0.626484240334    -3.852062790258    -0.702138266941    15.994914619570
         C           -6.017658759666    -3.616734790258     0.909921733059    12.000000000000
         H           -0.926994759666     6.100538209742    -0.196265266941     1.007825032230
         H           -3.230658759666     5.283161209742     0.240954733059     1.007825032230
         H           -1.601237759666     1.272686209742     0.222167733059     1.007825032230
         H            0.931340240334     4.426526209742    -0.442542266941     1.007825032230
         H           -5.252371759666     4.361802209742     0.811179733059     1.007825032230
         H           -7.334063759666     2.978174209742     1.036221733059     1.007825032230
         H           -6.243326759666    -1.096289790258     0.497376733059     1.007825032230
         H           -3.856512759666    -5.187242790258     0.484465733059     1.007825032230
         H           -1.564645759666    -4.612236790258    -0.200396266941     1.007825032230
         H           -2.764303759666    -0.505403790258    -0.499319266941     1.007825032230
         H           -0.700947759666    -1.043531790258    -1.026013266941     1.007825032230
         H            2.941815240334    -3.614605790258    -1.232978266941     1.007825032230
         H            5.067911240334    -2.455831790258    -1.711947266941     1.007825032230
         H            3.010231240334     1.331098209742    -1.580096266941     1.007825032230
         H            0.909704240334     0.179154209742    -1.101468266941     1.007825032230
         H            6.162786240334    -0.390324790258    -2.583019266941     1.007825032230
         H            5.329306240334     1.163135209742    -2.528564266941     1.007825032230
         H            7.332741240334    -1.293444790258    -0.691213266941     1.007825032230
         H            8.354001240334     0.191088209742     0.423022733059     1.007825032230
         H            6.994944240334    -1.657426790258     1.911271733059     1.007825032230
         H            5.119925240334    -1.498565790258     0.866282733059     1.007825032230
         H            7.750712240334     1.249200209742     2.516373733059     1.007825032230
         H            7.319367240334    -0.029293790258     3.680882733059     1.007825032230
         H            6.488497240334     1.533855209742     3.742230733059     1.007825032230
         H            4.883385240334     2.291283209742     2.095346733059     1.007825032230
         H            3.945868240334     0.699099209742     0.969555733059     1.007825032230
         H            7.127660240334     2.492010209742     0.529207733059     1.007825032230
         H            5.282431240334     2.520566209742    -0.522852266941     1.007825032230
         H           -6.800712759666    -3.390724790258     0.172029733059     1.007825032230
         H           -6.299496759666    -3.120428790258     1.842721733059     1.007825032230
         H           -6.076934759666    -4.691728790258     1.099866733059     1.007825032230

  Charge       = 0
  Multiplicity = 1
  Basis Set: 6-311++G**
    Blend: 6-311++G**
  Basis Set: (6-311++G** AUX)
    Blend: AUG-CC-PVTZ-JKFIT

    Orbital Energies [Eh]
    ---------------------

    Doubly Occupied:

       1A    -20.518539     2A    -15.603352     3A    -15.601536
       4A    -15.586947     5A    -15.573218     6A    -15.568727
       7A    -15.567218     8A    -15.552434     9A    -11.374331
      10A    -11.365297    11A    -11.334617    12A    -11.313620
      13A    -11.307307    14A    -11.306192    15A    -11.303938
      16A    -11.301786    17A    -11.301338    18A    -11.301084
      19A    -11.300445    20A    -11.293107    21A    -11.289669
      22A    -11.280544    23A    -11.276948    24A    -11.265943
      25A    -11.258043    26A    -11.256889    27A    -11.256374
      28A    -11.252400    29A    -11.247158    30A    -11.246565
      31A    -11.245535    32A    -11.245023    33A    -11.242946
      34A    -11.238788    35A    -11.233450    36A    -11.231122
      37A    -11.223804    38A     -1.385665    39A     -1.344828
      40A     -1.278323    41A     -1.249363    42A     -1.242632
      43A     -1.240642    44A     -1.209285    45A     -1.197152
      46A     -1.160523    47A     -1.139141    48A     -1.115908
      49A     -1.075015    50A     -1.058264    51A     -1.048171
      52A     -1.037445    53A     -1.022513    54A     -1.007185
      55A     -0.990473    56A     -0.974948    57A     -0.945729
      58A     -0.926671    59A     -0.926122    60A     -0.900659
      61A     -0.872637    62A     -0.864891    63A     -0.857827
      64A     -0.841380    65A     -0.833881    66A     -0.825651
      67A     -0.824298    68A     -0.804187    69A     -0.777860
      70A     -0.754521    71A     -0.740205    72A     -0.730741
      73A     -0.722084    74A     -0.699342    75A     -0.693768
      76A     -0.682533    77A     -0.672787    78A     -0.667000
      79A     -0.657641    80A     -0.654375    81A     -0.651350
      82A     -0.640766    83A     -0.635096    84A     -0.629815
      85A     -0.622105    86A     -0.616329    87A     -0.610995
      88A     -0.606792    89A     -0.602442    90A     -0.601783
      91A     -0.599532    92A     -0.595843    93A     -0.592070
      94A     -0.589484    95A     -0.584888    96A     -0.580232
      97A     -0.578378    98A     -0.572925    99A     -0.563332
     100A     -0.561509   101A     -0.547502   102A     -0.544389
     103A     -0.530532   104A     -0.524086   105A     -0.521697
     106A     -0.520781   107A     -0.512772   108A     -0.509310
     109A     -0.504863   110A     -0.503584   111A     -0.502987
     112A     -0.491924   113A     -0.484967   114A     -0.480273
     115A     -0.458277   116A     -0.451609   117A     -0.442632
     118A     -0.432029   119A     -0.427686   120A     -0.425001
     121A     -0.414202   122A     -0.404527   123A     -0.400199
     124A     -0.379537   125A     -0.373464   126A     -0.346480
     127A     -0.345253   128A     -0.339787   129A     -0.314632
     130A     -0.310560   131A     -0.289247

  @DF-RHF Final Energy: -1572.36365788623175

   => Energetics <=

    Nuclear Repulsion Energy =           3699.6320025598924985
    One-Electron Energy =               -9497.8094208849270217
    Two-Electron Energy =                4225.8137604388030013
    Total Energy =                      -1572.3636578862315218

  Dipole Moment: [D]
     X:    -2.2768      Y:     6.5261      Z:    -0.1593     Total:     6.9137

  Basis Set: (6-311++G** AUX)
    Blend: AUG-CC-PVTZ-RI
	 Reference Energy          =   -1572.3636578862317492 [Eh]
	 Singles Energy            =      -0.0000000000000000 [Eh]
	 Same-Spin Energy          =      -1.4699326081802520 [Eh]
	 Opposite-Spin Energy      =      -4.0459618433967552 [Eh]
	 Correlation Energy        =      -5.5158944515770072 [Eh]
	 Total Energy              =   -1577.8795523378087182 [Eh]

	 ================> DF-SCS-MP2 Energies <==================
	-----------------------------------------------------------
	 SCS Same-Spin Scale       =       0.3333333333333333 [-]
	 SCS Opposite-Spin Scale   =       1.2000000000000000 [-]
	 SCS Same-Spin Energy      =      -0.4899775360600840 [Eh]
	 SCS Opposite-Spin Energy  =      -4.8551542120761058 [Eh]
	 SCS Correlation Energy    =      -5.3451317481361897 [Eh]
	 SCS Total Energy          =   -1577.7087896343680313 [Eh]
	-----------------------------------------------------------

*** Psi4 exiting successfully. Buy a developer a beer!
