 Gaussian 09, Revision A.02,
 Gaussian 09:  EM64L-G09RevA.02 11-Jun-2009

 --------------------------------------------------
 #P opt=(,maxcycle=400) wB97XD/6-31G* MaxDisk=100GB
 --------------------------------------------------

 --------------------------------------------------------------
 MOLECULE0 Rotatable Bond Optimization on node37.bme.utexas.edu
 --------------------------------------------------------------
 Symbolic Z-matrix:
 Charge =  0 Multiplicity = 1

 SCF Done:  E(RwB97XD) =  -1581.46897192     A.U. after   16 cycles
 SCF Done:  E(RwB97XD) =  -1581.53672108     A.U. after   13 cycles
 SCF Done:  E(RwB97XD) =  -1581.64200503     A.U. after   14 cycles
 SCF Done:  E(RwB97XD) =  -1581.67913691     A.U. after   14 cycles
 SCF Done:  E(RwB97XD) =  -1581.71493534     A.U. after   17 cycles
 SCF Done:  E(RwB97XD) =  -1581.69985419     A.U. after   14 cycles
 SCF Done:  E(RwB97XD) =  -1581.72709538     A.U. after   14 cycles
 SCF Done:  E(RwB97XD) =  -1581.74418318     A.U. after   14 cycles
 SCF Done:  E(RwB97XD) =  -1581.74915189     A.U. after   15 cycles
 SCF Done:  E(RwB97XD) =  -1581.75154319     A.U. after   16 cycles
 SCF Done:  E(RwB97XD) =  -1581.76308037     A.U. after   12 cycles
 SCF Done:  E(RwB97XD) =  -1581.76314627     A.U. after   13 cycles
 SCF Done:  E(RwB97XD) =  -1581.76319078     A.U. after   12 cycles
 SCF Done:  E(RwB97XD) =  -1581.76320608     A.U. after   12 cycles
 SCF Done:  E(RwB97XD) =  -1581.76321348     A.U. after   12 cycles
 SCF Done:  E(RwB97XD) =  -1581.76321470     A.U. after   11 cycles
 SCF Done:  E(RwB97XD) =  -1581.76321539     A.U. after   10 cycles
 SCF Done:  E(RwB97XD) =  -1581.76321574     A.U. after    8 cycles
 SCF Done:  E(RwB97XD) =  -1581.76321615     A.U. after    8 cycles
 SCF Done:  E(RwB97XD) =  -1581.76321612     A.U. after    6 cycles
 Optimization completed.
    -- Stationary point found.

                         Standard orientation:
 ---------------------------------------------------------------------
 Center     Atomic      Atomic             Coordinates (Angstroms)
 Number     Number       Type             X           Y           Z
 ---------------------------------------------------------------------
      1          6           0       -0.473558    4.275070   -0.771808
      2          6           0        0.870982    4.192409   -0.430545
      3          6           0        1.547382    2.990382   -0.631549
      4          6           0        0.820911    1.926268   -1.182436
      5          7           0       -0.468052    1.990000   -1.511519
      6          6           0       -1.096948    3.150083   -1.300610
      7          6           0        2.969239    2.789240   -0.253822
      8          6           0        3.900266    3.819217   -0.154663
      9          6           0        5.186164    3.446702    0.235376
     10          7           0        5.545482    2.197403    0.496884
     11          6           0        4.572061    1.274975    0.354746
     12          7           0        3.312044    1.523617   -0.001877
     13          7           0        4.960791   -0.010987    0.613542
     14          6           0        4.245105   -1.217089    0.494818
     15          6           0        4.968916   -2.426742    0.479594
     16          6           0        4.248344   -3.609589    0.338162
     17          6           0        2.862576   -3.650873    0.195416
     18          6           0        2.171265   -2.443346    0.217364
     19          6           0        2.859551   -1.243394    0.394089
     20          7           0        0.784713   -2.305380    0.039679
     21          6           0       -0.155277   -3.232521   -0.330933
     22          6           0       -1.474732   -2.601029   -0.675192
     23          6           0       -1.549820   -1.358045   -1.310715
     24          6           0       -2.782129   -0.778698   -1.574435
     25          6           0       -3.965525   -1.409878   -1.191416
     26          6           0       -3.883872   -2.677355   -0.607946
     27          6           0       -2.653781   -3.274338   -0.357735
     28          6           0       -5.302554   -0.704123   -1.348480
     29          7           0       -5.692720    0.226058   -0.299747
     30          6           0       -5.025794    1.522769   -0.247663
     31          6           0       -3.815803    1.577771    0.702773
     32          7           0       -4.112996    1.068820    2.038834
     33          6           0       -4.901739    1.977865    2.851310
     34          6           0       -4.679132   -0.274597    1.939834
     35          6           0       -5.914302   -0.340214    1.026195
     36          8           0        0.036747   -4.436353   -0.364900
     37          6           0        6.471709   -2.442475    0.599125
     38          1           0       -1.032956    5.191754   -0.619131
     39          1           0        1.376067    5.045545    0.013217
     40          1           0        1.325030    0.980914   -1.366368
     41          1           0       -2.151901    3.176909   -1.564986
     42          1           0        3.661328    4.850979   -0.380741
     43          1           0        5.967733    4.196852    0.338183
     44          1           0        5.942011   -0.077060    0.839490
     45          1           0        4.796597   -4.548254    0.324799
     46          1           0        2.333659   -4.584939    0.064540
     47          1           0        2.314452   -0.312050    0.419701
     48          1           0        0.446124   -1.358976    0.131148
     49          1           0       -0.653347   -0.833042   -1.627515
     50          1           0       -2.809994    0.190729   -2.065398
     51          1           0       -4.798613   -3.197194   -0.331620
     52          1           0       -2.590161   -4.256894    0.099197
     53          1           0       -5.308244   -0.148815   -2.294223
     54          1           0       -6.094878   -1.459969   -1.423009
     55          1           0       -4.724115    1.804182   -1.263711
     56          1           0       -5.767149    2.267881    0.078343
     57          1           0       -3.458566    2.611693    0.792366
     58          1           0       -2.990929    0.982641    0.295481
     59          1           0       -5.911823    2.205544    2.467374
     60          1           0       -4.363997    2.927217    2.951566
     61          1           0       -5.017406    1.550837    3.853471
     62          1           0       -4.937574   -0.623235    2.947115
     63          1           0       -3.897281   -0.938060    1.552221
     64          1           0       -6.742976    0.208243    1.498319
     65          1           0       -6.248101   -1.377985    0.915257
     66          1           0        6.817246   -2.031150    1.557462
     67          1           0        6.951891   -1.865794   -0.202111
     68          1           0        6.852034   -3.465061    0.535070
 ---------------------------------------------------------------------

 The electronic state is 1-A.
 Alpha  occ. eigenvalues --  -19.23412 -14.49282 -14.48321 -14.46751 -14.46096
 Alpha  occ. eigenvalues --  -14.45764 -14.43617 -14.43135 -10.41777 -10.40081
 Alpha  occ. eigenvalues --  -10.37615 -10.36338 -10.35324 -10.35084 -10.34623
 Alpha  occ. eigenvalues --  -10.34135 -10.34016 -10.33622 -10.32863 -10.32367
 Alpha  occ. eigenvalues --  -10.31860 -10.31492 -10.31178 -10.30936 -10.30708
 Alpha  occ. eigenvalues --  -10.30688 -10.30677 -10.30586 -10.30534 -10.30403
 Alpha  occ. eigenvalues --  -10.30377 -10.30220 -10.30020 -10.29974 -10.29575
 Alpha  occ. eigenvalues --  -10.28740 -10.28405  -1.13444  -1.12295  -1.06322
 Alpha  occ. eigenvalues --   -1.04565  -1.03828  -1.03634  -1.00715  -0.99557
 Alpha  occ. eigenvalues --   -0.96086  -0.94671  -0.93098  -0.89777  -0.88124
 Alpha  occ. eigenvalues --   -0.87388  -0.86228  -0.85399  -0.84542  -0.83783
 Alpha  occ. eigenvalues --   -0.81888  -0.79581  -0.78270  -0.77798  -0.76320
 Alpha  occ. eigenvalues --   -0.73881  -0.73301  -0.73025  -0.72621  -0.70870
 Alpha  occ. eigenvalues --   -0.70314  -0.69615  -0.68039  -0.66413  -0.65150
 Alpha  occ. eigenvalues --   -0.63656  -0.63408  -0.62228  -0.61762  -0.60211
 Alpha  occ. eigenvalues --   -0.58848  -0.58045  -0.57570  -0.56611  -0.56100
 Alpha  occ. eigenvalues --   -0.55817  -0.55236  -0.55134  -0.54965  -0.54255
 Alpha  occ. eigenvalues --   -0.53867  -0.53239  -0.53154  -0.52612  -0.52174
 Alpha  occ. eigenvalues --   -0.51912  -0.51509  -0.51370  -0.50999  -0.50575
 Alpha  occ. eigenvalues --   -0.50365  -0.50116  -0.49974  -0.49497  -0.48335
 Alpha  occ. eigenvalues --   -0.47217  -0.46906  -0.46619  -0.46319  -0.46210
 Alpha  occ. eigenvalues --   -0.45762  -0.45235  -0.44798  -0.44045  -0.43932
 Alpha  occ. eigenvalues --   -0.43328  -0.43016  -0.42141  -0.41766  -0.41439
 Alpha  occ. eigenvalues --   -0.40964  -0.40776  -0.39912  -0.38187  -0.37592
 Alpha  occ. eigenvalues --   -0.35821  -0.35293  -0.34002  -0.33447  -0.33373
 Alpha  occ. eigenvalues --   -0.32818  -0.31904  -0.30772  -0.29115  -0.27080
 Alpha  occ. eigenvalues --   -0.24996
 Alpha virt. eigenvalues --   -0.00292   0.02872   0.03586   0.04481   0.06433
 Alpha virt. eigenvalues --    0.07258   0.08204   0.10370   0.13887   0.14814
 Alpha virt. eigenvalues --    0.15729   0.16386   0.17252   0.17441   0.18251

 Mulliken atomic charges:
              1
     1  C   -0.197839
     2  C   -0.154404
     3  C    0.035510
     4  C    0.009582
     5  N   -0.437520
     6  C    0.035726
     7  C    0.295137
     8  C   -0.254762
     9  C    0.049016
    10  N   -0.493035
    11  C    0.714330
    12  N   -0.568375
    13  N   -0.802016
    14  C    0.291457
    15  C    0.119866
    16  C   -0.240380
    17  C   -0.191299
    18  C    0.358124
    19  C   -0.269671
    20  N   -0.757946
    21  C    0.585705
    22  C    0.015192
    23  C   -0.205345
    24  C   -0.217898
    25  C    0.155966
    26  C   -0.223078
    27  C   -0.178379
    28  C   -0.263560
    29  N   -0.382226
    30  C   -0.183897
    31  C   -0.181779
    32  N   -0.385719
    33  C   -0.349274
    34  C   -0.182636
    35  C   -0.186521
    36  O   -0.513266
    37  C   -0.607369
    38  H    0.186139
    39  H    0.186725
    40  H    0.198122
    41  H    0.179047
    42  H    0.180745
    43  H    0.189490
    44  H    0.369210
    45  H    0.160820
    46  H    0.213084
    47  H    0.199353
    48  H    0.361558
    49  H    0.185466
    50  H    0.172061
    51  H    0.163616
    52  H    0.195603
    53  H    0.170279
    54  H    0.168921
    55  H    0.148153
    56  H    0.158361
    57  H    0.141662
    58  H    0.174883
    59  H    0.135269
    60  H    0.164120
    61  H    0.167872
    62  H    0.153490
    63  H    0.172927
    64  H    0.159411
    65  H    0.154994
    66  H    0.178035
    67  H    0.182749
    68  H    0.190419
 Sum of Mulliken atomic charges =   0.00000

 Dipole moment (field-independent basis, Debye):
    X=              0.5804    Y=              6.5717    Z=              0.4336  Tot=              6.6115
 Quadrupole moment (field-independent basis, Debye-Ang):
   XX=           -193.2993   YY=           -202.5049   ZZ=           -220.4848
   XY=              3.1065   XZ=             -1.2846   YZ=             -5.2240

 Normal termination of Gaussian 09 at Thu Apr  9 01:04:47 2020.
