 Gaussian 09, Revision A.02,
 Gaussian 09:  EM64L-G09RevA.02 11-Jun-2009

 --------------------------------------------------
 #P opt=(,maxcycle=400) wB97XD/6-31G* MaxDisk=100GB
 --------------------------------------------------

 -----------------------------------------------------------------
 MOLECULE0 Rotatable Bond Optimization on g2-node38.bme.utexas.edu
 -----------------------------------------------------------------
 Symbolic Z-matrix:
 Charge =  0 Multiplicity = 1

 SCF Done:  E(RwB97XD) =  -1581.52148343     A.U. after   16 cycles
 SCF Done:  E(RwB97XD) =  -1581.58238202     A.U. after   14 cycles
 SCF Done:  E(RwB97XD) =  -1581.67930768     A.U. after   14 cycles
 SCF Done:  E(RwB97XD) =  -1581.71837911     A.U. after   15 cycles
 SCF Done:  E(RwB97XD) =  -1581.72755349     A.U. after   17 cycles
 SCF Done:  E(RwB97XD) =  -1581.73659911     A.U. after   17 cycles
 SCF Done:  E(RwB97XD) =  -1581.75421574     A.U. after   14 cycles
 SCF Done:  E(RwB97XD) =  -1581.75828116     A.U. after   14 cycles
 SCF Done:  E(RwB97XD) =  -1581.76026632     A.U. after   14 cycles
 SCF Done:  E(RwB97XD) =  -1581.76111927     A.U. after   16 cycles
 SCF Done:  E(RwB97XD) =  -1581.76295216     A.U. after   13 cycles
 SCF Done:  E(RwB97XD) =  -1581.76311508     A.U. after   14 cycles
 SCF Done:  E(RwB97XD) =  -1581.76317790     A.U. after   12 cycles
 SCF Done:  E(RwB97XD) =  -1581.76319491     A.U. after   12 cycles
 SCF Done:  E(RwB97XD) =  -1581.76320337     A.U. after   11 cycles
 SCF Done:  E(RwB97XD) =  -1581.76320975     A.U. after   11 cycles
 SCF Done:  E(RwB97XD) =  -1581.76321482     A.U. after   11 cycles
 SCF Done:  E(RwB97XD) =  -1581.76321668     A.U. after    9 cycles
 SCF Done:  E(RwB97XD) =  -1581.76321685     A.U. after    7 cycles
 SCF Done:  E(RwB97XD) =  -1581.76321624     A.U. after    7 cycles
 Optimization completed.
    -- Stationary point found.

                         Standard orientation:
 ---------------------------------------------------------------------
 Center     Atomic      Atomic             Coordinates (Angstroms)
 Number     Number       Type             X           Y           Z
 ---------------------------------------------------------------------
      1          6           0       -0.472853    4.275113   -0.771376
      2          6           0        0.871704    4.192472   -0.430168
      3          6           0        1.548145    2.990498   -0.631404
      4          6           0        0.821717    1.926450   -1.182463
      5          7           0       -0.467265    1.990161   -1.511476
      6          6           0       -1.096207    3.150182   -1.300339
      7          6           0        2.969976    2.789240   -0.253634
      8          6           0        3.901137    3.819055   -0.154216
      9          6           0        5.186978    3.446246    0.235792
     10          7           0        5.546141    2.196833    0.496912
     11          6           0        4.572636    1.274538    0.354344
     12          7           0        3.312661    1.523476   -0.002185
     13          7           0        4.961205   -0.011578    0.612548
     14          6           0        4.245134   -1.217508    0.494329
     15          6           0        4.968591   -2.427391    0.479672
     16          6           0        4.247681   -3.610090    0.338709
     17          6           0        2.861906   -3.651038    0.195941
     18          6           0        2.170953   -2.443303    0.217312
     19          6           0        2.859574   -1.243460    0.393431
     20          7           0        0.784420   -2.305052    0.039614
     21          6           0       -0.155692   -3.232047   -0.330987
     22          6           0       -1.475074   -2.600464   -0.675303
     23          6           0       -1.550205   -1.357353   -1.310567
     24          6           0       -2.782542   -0.778097   -1.574363
     25          6           0       -3.965946   -1.409503   -1.191678
     26          6           0       -3.884238   -2.677091   -0.608470
     27          6           0       -2.654112   -3.273960   -0.358173
     28          6           0       -5.302994   -0.703801   -1.348676
     29          7           0       -5.693126    0.226127   -0.299682
     30          6           0       -5.026543    1.522992   -0.247521
     31          6           0       -3.816427    1.578213    0.702736
     32          7           0       -4.113251    1.069005    2.038793
     33          6           0       -4.902228    1.977642    2.851517
     34          6           0       -4.678958   -0.274568    1.939624
     35          6           0       -5.914268   -0.340470    1.026195
     36          8           0        0.036100   -4.435935   -0.364635
     37          6           0        6.471371   -2.443541    0.599338
     38          1           0       -1.032300    5.191741   -0.618528
     39          1           0        1.376770    5.045527    0.013765
     40          1           0        1.325885    0.981145   -1.366536
     41          1           0       -2.151178    3.176993   -1.564649
     42          1           0        3.662346    4.850893   -0.380103
     43          1           0        5.968621    4.196285    0.338877
     44          1           0        5.942377   -0.077884    0.838626
     45          1           0        4.795673   -4.548915    0.325759
     46          1           0        2.332731   -4.585011    0.065439
     47          1           0        2.314760   -0.311940    0.418507
     48          1           0        0.446041   -1.358562    0.131000
     49          1           0       -0.653782   -0.832144   -1.627185
     50          1           0       -2.810421    0.191394   -2.065197
     51          1           0       -4.798965   -3.197141   -0.332495
     52          1           0       -2.590398   -4.256602    0.098565
     53          1           0       -5.308759   -0.148296   -2.294299
     54          1           0       -6.095309   -1.459646   -1.423288
     55          1           0       -4.725133    1.804668   -1.263577
     56          1           0       -5.767962    2.267823    0.078707
     57          1           0       -3.459439    2.612209    0.792353
     58          1           0       -2.991487    0.983330    0.295268
     59          1           0       -5.912525    2.204811    2.467845
     60          1           0       -4.364924    2.927251    2.951645
     61          1           0       -5.017405    1.550521    3.853696
     62          1           0       -4.937105   -0.623516    2.946881
     63          1           0       -3.896995   -0.937641    1.551784
     64          1           0       -6.743215    0.207587    1.498637
     65          1           0       -6.247596   -1.378393    0.915136
     66          1           0        6.816930   -2.032118    1.557627
     67          1           0        6.951800   -1.867178   -0.201976
     68          1           0        6.851392   -3.466252    0.535514
 ---------------------------------------------------------------------

 The electronic state is 1-A.
 Alpha  occ. eigenvalues --  -19.23411 -14.49282 -14.48321 -14.46751 -14.46096
 Alpha  occ. eigenvalues --  -14.45763 -14.43616 -14.43135 -10.41778 -10.40081
 Alpha  occ. eigenvalues --  -10.37614 -10.36338 -10.35324 -10.35084 -10.34624
 Alpha  occ. eigenvalues --  -10.34135 -10.34016 -10.33622 -10.32863 -10.32367
 Alpha  occ. eigenvalues --  -10.31860 -10.31491 -10.31180 -10.30935 -10.30708
 Alpha  occ. eigenvalues --  -10.30687 -10.30677 -10.30585 -10.30532 -10.30402
 Alpha  occ. eigenvalues --  -10.30377 -10.30220 -10.30020 -10.29975 -10.29575
 Alpha  occ. eigenvalues --  -10.28740 -10.28405  -1.13443  -1.12295  -1.06322
 Alpha  occ. eigenvalues --   -1.04565  -1.03828  -1.03633  -1.00715  -0.99557
 Alpha  occ. eigenvalues --   -0.96086  -0.94671  -0.93098  -0.89777  -0.88124
 Alpha  occ. eigenvalues --   -0.87388  -0.86228  -0.85399  -0.84541  -0.83783
 Alpha  occ. eigenvalues --   -0.81888  -0.79581  -0.78270  -0.77798  -0.76320
 Alpha  occ. eigenvalues --   -0.73881  -0.73300  -0.73024  -0.72621  -0.70870
 Alpha  occ. eigenvalues --   -0.70314  -0.69614  -0.68039  -0.66413  -0.65150
 Alpha  occ. eigenvalues --   -0.63656  -0.63408  -0.62228  -0.61762  -0.60211
 Alpha  occ. eigenvalues --   -0.58848  -0.58045  -0.57570  -0.56611  -0.56101
 Alpha  occ. eigenvalues --   -0.55817  -0.55236  -0.55134  -0.54965  -0.54255
 Alpha  occ. eigenvalues --   -0.53867  -0.53239  -0.53154  -0.52612  -0.52174
 Alpha  occ. eigenvalues --   -0.51912  -0.51509  -0.51371  -0.50999  -0.50575
 Alpha  occ. eigenvalues --   -0.50365  -0.50116  -0.49974  -0.49497  -0.48335
 Alpha  occ. eigenvalues --   -0.47217  -0.46906  -0.46619  -0.46319  -0.46210
 Alpha  occ. eigenvalues --   -0.45762  -0.45235  -0.44798  -0.44045  -0.43931
 Alpha  occ. eigenvalues --   -0.43327  -0.43016  -0.42141  -0.41766  -0.41439
 Alpha  occ. eigenvalues --   -0.40964  -0.40776  -0.39912  -0.38187  -0.37592
 Alpha  occ. eigenvalues --   -0.35821  -0.35293  -0.34001  -0.33446  -0.33373
 Alpha  occ. eigenvalues --   -0.32818  -0.31904  -0.30772  -0.29115  -0.27079
 Alpha  occ. eigenvalues --   -0.24996
 Alpha virt. eigenvalues --   -0.00292   0.02872   0.03585   0.04480   0.06434
 Alpha virt. eigenvalues --    0.07258   0.08204   0.10372   0.13887   0.14814
 Alpha virt. eigenvalues --    0.15729   0.16386   0.17253   0.17441   0.18252

 Mulliken atomic charges:
              1
     1  C   -0.197839
     2  C   -0.154401
     3  C    0.035479
     4  C    0.009588
     5  N   -0.437531
     6  C    0.035730
     7  C    0.295184
     8  C   -0.254773
     9  C    0.049022
    10  N   -0.493037
    11  C    0.714388
    12  N   -0.568422
    13  N   -0.802090
    14  C    0.291486
    15  C    0.119855
    16  C   -0.240379
    17  C   -0.191296
    18  C    0.358113
    19  C   -0.269679
    20  N   -0.757943
    21  C    0.585737
    22  C    0.015191
    23  C   -0.205342
    24  C   -0.217921
    25  C    0.155961
    26  C   -0.223081
    27  C   -0.178373
    28  C   -0.263565
    29  N   -0.382224
    30  C   -0.183887
    31  C   -0.181799
    32  N   -0.385721
    33  C   -0.349275
    34  C   -0.182626
    35  C   -0.186527
    36  O   -0.513291
    37  C   -0.607373
    38  H    0.186138
    39  H    0.186727
    40  H    0.198138
    41  H    0.179045
    42  H    0.180748
    43  H    0.189490
    44  H    0.369213
    45  H    0.160819
    46  H    0.213089
    47  H    0.199370
    48  H    0.361562
    49  H    0.185479
    50  H    0.172048
    51  H    0.163619
    52  H    0.195614
    53  H    0.170282
    54  H    0.168925
    55  H    0.148151
    56  H    0.158378
    57  H    0.141665
    58  H    0.174873
    59  H    0.135275
    60  H    0.164116
    61  H    0.167877
    62  H    0.153489
    63  H    0.172948
    64  H    0.159378
    65  H    0.154999
    66  H    0.178043
    67  H    0.182741
    68  H    0.190421
 Sum of Mulliken atomic charges =   0.00000

 Dipole moment (field-independent basis, Debye):
    X=              0.5813    Y=              6.5714    Z=              0.4341  Tot=              6.6114
 Quadrupole moment (field-independent basis, Debye-Ang):
   XX=           -193.2998   YY=           -202.4981   ZZ=           -220.4851
   XY=              3.1047   XZ=             -1.2767   YZ=             -5.2201

 Normal termination of Gaussian 09 at Thu Feb 27 16:55:11 2020.
