 Gaussian 09, Revision A.02,
 Gaussian 09:  EM64L-G09RevA.02 11-Jun-2009

 --------------------------------------------------
 #P opt=(,maxcycle=400) wB97XD/6-31G* MaxDisk=100GB
 --------------------------------------------------

 --------------------------------------------------------------
 MOLECULE0 Rotatable Bond Optimization on node37.bme.utexas.edu
 --------------------------------------------------------------
 Symbolic Z-matrix:
 Charge =  0 Multiplicity = 1

 SCF Done:  E(RwB97XD) =  -1581.51140320     A.U. after   16 cycles
 SCF Done:  E(RwB97XD) =  -1581.57149602     A.U. after   13 cycles
 SCF Done:  E(RwB97XD) =  -1581.67059246     A.U. after   14 cycles
 SCF Done:  E(RwB97XD) =  -1581.72083762     A.U. after   15 cycles
 SCF Done:  E(RwB97XD) =  -1581.73484353     A.U. after   17 cycles
 SCF Done:  E(RwB97XD) =  -1581.74116586     A.U. after   17 cycles
 SCF Done:  E(RwB97XD) =  -1581.75278494     A.U. after   17 cycles
 SCF Done:  E(RwB97XD) =  -1581.75685190     A.U. after   16 cycles
 SCF Done:  E(RwB97XD) =  -1581.75748987     A.U. after   16 cycles
 SCF Done:  E(RwB97XD) =  -1581.75443226     A.U. after   17 cycles
 SCF Done:  E(RwB97XD) =  -1581.76100372     A.U. after   13 cycles
 SCF Done:  E(RwB97XD) =  -1581.76101668     A.U. after   12 cycles
 SCF Done:  E(RwB97XD) =  -1581.76102337     A.U. after   11 cycles
 SCF Done:  E(RwB97XD) =  -1581.76102296     A.U. after   12 cycles
 SCF Done:  E(RwB97XD) =  -1581.76103164     A.U. after   12 cycles
 SCF Done:  E(RwB97XD) =  -1581.76103449     A.U. after   11 cycles
 SCF Done:  E(RwB97XD) =  -1581.76103764     A.U. after   11 cycles
 SCF Done:  E(RwB97XD) =  -1581.76103879     A.U. after    8 cycles
 SCF Done:  E(RwB97XD) =  -1581.76103905     A.U. after    7 cycles
 SCF Done:  E(RwB97XD) =  -1581.76103923     A.U. after    6 cycles
 Optimization completed.
    -- Stationary point found.

                         Standard orientation:
 ---------------------------------------------------------------------
 Center     Atomic      Atomic             Coordinates (Angstroms)
 Number     Number       Type             X           Y           Z
 ---------------------------------------------------------------------
      1          6           0       -1.266282    4.902808    0.308568
      2          6           0       -2.502771    4.290117    0.462730
      3          6           0       -2.691574    3.005617   -0.046584
      4          6           0       -1.611012    2.396241   -0.697418
      5          7           0       -0.419416    2.976577   -0.849423
      6          6           0       -0.259741    4.204321   -0.349299
      7          6           0       -3.979064    2.284860    0.105446
      8          6           0       -5.202683    2.948038    0.178834
      9          6           0       -6.328699    2.148713    0.349446
     10          7           0       -6.281085    0.826482    0.431320
     11          6           0       -5.051179    0.283199    0.326165
     12          7           0       -3.907113    0.950816    0.173357
     13          7           0       -5.050312   -1.085003    0.411288
     14          6           0       -4.011610   -2.025389    0.337982
     15          6           0       -4.319940   -3.362213    0.665592
     16          6           0       -3.296476   -4.302236    0.596327
     17          6           0       -2.004033   -3.964474    0.212087
     18          6           0       -1.721698   -2.640614   -0.113086
     19          6           0       -2.719589   -1.672497   -0.046412
     20          7           0       -0.396359   -2.289171   -0.461766
     21          6           0       -0.012835   -1.234896   -1.250782
     22          6           0        1.467526   -1.028150   -1.370467
     23          6           0        2.395052   -2.071567   -1.354364
     24          6           0        3.753425   -1.801529   -1.476845
     25          6           0        4.214815   -0.490443   -1.602389
     26          6           0        3.274381    0.541748   -1.648952
     27          6           0        1.914766    0.285295   -1.537279
     28          6           0        5.705653   -0.192004   -1.664510
     29          7           0        6.403476    0.075263   -0.418004
     30          6           0        6.569632   -1.037079    0.509730
     31          6           0        5.465684   -1.126959    1.577079
     32          7           0        5.260462    0.129290    2.293346
     33          6           0        6.303336    0.430770    3.257875
     34          6           0        5.009082    1.205843    1.338584
     35          6           0        6.104388    1.328296    0.265897
     36          8           0       -0.801983   -0.486474   -1.805460
     37          6           0       -5.710359   -3.767903    1.083886
     38          1           0       -1.080257    5.896523    0.702100
     39          1           0       -3.302520    4.795661    0.996953
     40          1           0       -1.711942    1.401228   -1.121407
     41          1           0        0.723930    4.650247   -0.480477
     42          1           0       -5.287568    4.023372    0.083572
     43          1           0       -7.318396    2.595495    0.421738
     44          1           0       -5.980994   -1.445015    0.559230
     45          1           0       -3.518999   -5.336090    0.847266
     46          1           0       -1.230012   -4.724734    0.156449
     47          1           0       -2.496092   -0.648858   -0.286123
     48          1           0        0.335284   -2.819681   -0.014197
     49          1           0        2.064207   -3.105539   -1.288013
     50          1           0        4.466785   -2.622601   -1.477330
     51          1           0        3.614415    1.567842   -1.770871
     52          1           0        1.190038    1.095850   -1.564262
     53          1           0        6.213471   -1.038511   -2.143972
     54          1           0        5.863375    0.676923   -2.315469
     55          1           0        6.622587   -1.970939   -0.061743
     56          1           0        7.542812   -0.918083    1.009065
     57          1           0        5.708978   -1.911679    2.303711
     58          1           0        4.515249   -1.397030    1.101720
     59          1           0        7.313394    0.578081    2.836512
     60          1           0        6.363372   -0.385235    3.986434
     61          1           0        6.034601    1.344002    3.800064
     62          1           0        4.915750    2.150692    1.887661
     63          1           0        4.043087    1.006661    0.860526
     64          1           0        7.031561    1.685007    0.738874
     65          1           0        5.822849    2.080218   -0.479880
     66          1           0       -6.449396   -3.592663    0.290220
     67          1           0       -6.044911   -3.222473    1.975689
     68          1           0       -5.745520   -4.834148    1.321752
 ---------------------------------------------------------------------

 The electronic state is 1-A.
 Alpha  occ. eigenvalues --  -19.23377 -14.48552 -14.48468 -14.45115 -14.44842
 Alpha  occ. eigenvalues --  -14.44787 -14.43532 -14.43020 -10.40818 -10.40262
 Alpha  occ. eigenvalues --  -10.36403 -10.35301 -10.34287 -10.33906 -10.33675
 Alpha  occ. eigenvalues --  -10.32778 -10.32555 -10.32362 -10.31864 -10.31256
 Alpha  occ. eigenvalues --  -10.31240 -10.31238 -10.31173 -10.31010 -10.30775
 Alpha  occ. eigenvalues --  -10.30733 -10.30607 -10.30548 -10.30465 -10.30461
 Alpha  occ. eigenvalues --  -10.30441 -10.30001 -10.29991 -10.29848 -10.29773
 Alpha  occ. eigenvalues --  -10.29346 -10.27996  -1.13681  -1.11288  -1.04530
 Alpha  occ. eigenvalues --   -1.03809  -1.03766  -1.03257  -0.99603  -0.99474
 Alpha  occ. eigenvalues --   -0.96093  -0.94534  -0.91748  -0.88735  -0.87815
 Alpha  occ. eigenvalues --   -0.86317  -0.85945  -0.85315  -0.84579  -0.83490
 Alpha  occ. eigenvalues --   -0.81819  -0.79358  -0.77707  -0.76912  -0.75817
 Alpha  occ. eigenvalues --   -0.73181  -0.72843  -0.72334  -0.71501  -0.70456
 Alpha  occ. eigenvalues --   -0.70055  -0.69293  -0.67888  -0.66288  -0.64704
 Alpha  occ. eigenvalues --   -0.63584  -0.63228  -0.61658  -0.60759  -0.59546
 Alpha  occ. eigenvalues --   -0.58086  -0.57788  -0.56630  -0.56273  -0.55833
 Alpha  occ. eigenvalues --   -0.55187  -0.54912  -0.54769  -0.54137  -0.53932
 Alpha  occ. eigenvalues --   -0.53731  -0.53280  -0.53157  -0.52567  -0.51924
 Alpha  occ. eigenvalues --   -0.51275  -0.51059  -0.50711  -0.50521  -0.49982
 Alpha  occ. eigenvalues --   -0.49938  -0.49440  -0.48906  -0.48707  -0.48223
 Alpha  occ. eigenvalues --   -0.47514  -0.46661  -0.46243  -0.46000  -0.45509
 Alpha  occ. eigenvalues --   -0.45051  -0.44713  -0.44487  -0.44049  -0.43818
 Alpha  occ. eigenvalues --   -0.43432  -0.42479  -0.42164  -0.41394  -0.40873
 Alpha  occ. eigenvalues --   -0.40801  -0.40500  -0.39159  -0.37133  -0.36320
 Alpha  occ. eigenvalues --   -0.34618  -0.33991  -0.33691  -0.32950  -0.32639
 Alpha  occ. eigenvalues --   -0.32347  -0.31715  -0.30724  -0.29242  -0.26887
 Alpha  occ. eigenvalues --   -0.24903
 Alpha virt. eigenvalues --    0.01191   0.03354   0.04562   0.05390   0.06436
 Alpha virt. eigenvalues --    0.08131   0.08423   0.10934   0.14112   0.15608
 Alpha virt. eigenvalues --    0.16542   0.17037   0.17723   0.18052   0.19069

 Mulliken atomic charges:
              1
     1  C   -0.204143
     2  C   -0.154253
     3  C    0.032749
     4  C   -0.000627
     5  N   -0.442086
     6  C    0.036362
     7  C    0.281278
     8  C   -0.254695
     9  C    0.049585
    10  N   -0.499688
    11  C    0.715920
    12  N   -0.550433
    13  N   -0.810331
    14  C    0.278824
    15  C    0.119379
    16  C   -0.233159
    17  C   -0.216128
    18  C    0.321567
    19  C   -0.184560
    20  N   -0.757417
    21  C    0.587440
    22  C    0.017484
    23  C   -0.208011
    24  C   -0.221619
    25  C    0.161189
    26  C   -0.236069
    27  C   -0.176398
    28  C   -0.264320
    29  N   -0.380818
    30  C   -0.184653
    31  C   -0.180938
    32  N   -0.384908
    33  C   -0.349685
    34  C   -0.183579
    35  C   -0.186006
    36  O   -0.512486
    37  C   -0.608557
    38  H    0.178762
    39  H    0.180276
    40  H    0.251564
    41  H    0.174084
    42  H    0.179228
    43  H    0.185239
    44  H    0.367384
    45  H    0.157622
    46  H    0.156288
    47  H    0.242193
    48  H    0.356526
    49  H    0.164768
    50  H    0.161219
    51  H    0.165063
    52  H    0.234838
    53  H    0.168171
    54  H    0.171308
    55  H    0.150897
    56  H    0.159752
    57  H    0.151050
    58  H    0.166748
    59  H    0.135263
    60  H    0.166342
    61  H    0.167001
    62  H    0.152072
    63  H    0.173567
    64  H    0.159181
    65  H    0.153380
    66  H    0.181627
    67  H    0.185222
    68  H    0.187156
 Sum of Mulliken atomic charges =   0.00000

 Dipole moment (field-independent basis, Debye):
    X=              0.2187    Y=              0.4234    Z=              2.4293  Tot=              2.4756
 Quadrupole moment (field-independent basis, Debye-Ang):
   XX=           -193.8260   YY=           -175.0850   ZZ=           -224.9466
   XY=             -7.9397   XZ=             -5.0307   YZ=              1.2727

 Normal termination of Gaussian 09 at Wed Apr  8 23:57:14 2020.
