 Gaussian 09, Revision A.02,
 Gaussian 09:  EM64L-G09RevA.02 11-Jun-2009

 --------------------------------------------------
 #P opt=(,maxcycle=400) wB97XD/6-31G* MaxDisk=100GB
 --------------------------------------------------

 -----------------------------------------------------------------
 MOLECULE0 Rotatable Bond Optimization on g2-node38.bme.utexas.edu
 -----------------------------------------------------------------
 Symbolic Z-matrix:
 Charge =  0 Multiplicity = 1

 SCF Done:  E(RwB97XD) =  -1581.47225155     A.U. after   16 cycles
 SCF Done:  E(RwB97XD) =  -1581.54294571     A.U. after   13 cycles
 SCF Done:  E(RwB97XD) =  -1581.65471735     A.U. after   14 cycles
 SCF Done:  E(RwB97XD) =  -1581.70266025     A.U. after   14 cycles
 SCF Done:  E(RwB97XD) =  -1581.72100150     A.U. after   17 cycles
 SCF Done:  E(RwB97XD) =  -1581.71547646     A.U. after   14 cycles
 SCF Done:  E(RwB97XD) =  -1581.73555591     A.U. after   14 cycles
 SCF Done:  E(RwB97XD) =  -1581.74788529     A.U. after   14 cycles
 SCF Done:  E(RwB97XD) =  -1581.75203098     A.U. after   14 cycles
 SCF Done:  E(RwB97XD) =  -1581.75374330     A.U. after   16 cycles
 SCF Done:  E(RwB97XD) =  -1581.76313275     A.U. after   12 cycles
 SCF Done:  E(RwB97XD) =  -1581.76314188     A.U. after   13 cycles
 SCF Done:  E(RwB97XD) =  -1581.76318156     A.U. after   12 cycles
 SCF Done:  E(RwB97XD) =  -1581.76320046     A.U. after   12 cycles
 SCF Done:  E(RwB97XD) =  -1581.76320682     A.U. after   11 cycles
 SCF Done:  E(RwB97XD) =  -1581.76321100     A.U. after   11 cycles
 SCF Done:  E(RwB97XD) =  -1581.76321430     A.U. after    8 cycles
 SCF Done:  E(RwB97XD) =  -1581.76321570     A.U. after    8 cycles
 SCF Done:  E(RwB97XD) =  -1581.76321634     A.U. after    7 cycles
 SCF Done:  E(RwB97XD) =  -1581.76321619     A.U. after    7 cycles
 Optimization completed.
    -- Stationary point found.

                         Standard orientation:
 ---------------------------------------------------------------------
 Center     Atomic      Atomic             Coordinates (Angstroms)
 Number     Number       Type             X           Y           Z
 ---------------------------------------------------------------------
      1          6           0       -0.473868    4.274965   -0.771224
      2          6           0        0.870718    4.192335   -0.430137
      3          6           0        1.547187    2.990384   -0.631393
      4          6           0        0.820713    1.926304   -1.182344
      5          7           0       -0.468302    1.990000   -1.511250
      6          6           0       -1.097247    3.150013   -1.300118
      7          6           0        2.969109    2.789311   -0.253877
      8          6           0        3.900028    3.819372   -0.154529
      9          6           0        5.185988    3.446917    0.235349
     10          7           0        5.545440    2.197608    0.496655
     11          6           0        4.572120    1.275103    0.354404
     12          7           0        3.312067    1.523680   -0.002187
     13          7           0        4.960953   -0.010861    0.613037
     14          6           0        4.245257   -1.216992    0.494604
     15          6           0        4.969066   -2.426656    0.479535
     16          6           0        4.248474   -3.609524    0.338355
     17          6           0        2.862698   -3.650832    0.195694
     18          6           0        2.171396   -2.443300    0.217496
     19          6           0        2.859694   -1.243324    0.393948
     20          7           0        0.784845   -2.305350    0.039807
     21          6           0       -0.155165   -3.232526   -0.330673
     22          6           0       -1.474560   -2.601001   -0.675094
     23          6           0       -1.549562   -1.358003   -1.310564
     24          6           0       -2.781858   -0.778657   -1.574430
     25          6           0       -3.965307   -1.409843   -1.191592
     26          6           0       -3.883718   -2.677347   -0.608153
     27          6           0       -2.653662   -3.274325   -0.357810
     28          6           0       -5.302308   -0.704019   -1.348800
     29          7           0       -5.692671    0.226042   -0.300052
     30          6           0       -5.025681    1.522733   -0.247754
     31          6           0       -3.815814    1.577603    0.702868
     32          7           0       -4.113250    1.068506    2.038800
     33          6           0       -4.902079    1.977432    2.851285
     34          6           0       -4.679323   -0.274888    1.939597
     35          6           0       -5.914417   -0.340331    1.025818
     36          8           0        0.036810   -4.436367   -0.364404
     37          6           0        6.471864   -2.442381    0.598996
     38          1           0       -1.033299    5.191597   -0.618350
     39          1           0        1.375779    5.045435    0.013719
     40          1           0        1.324843    0.980992   -1.366460
     41          1           0       -2.152239    3.176781   -1.564350
     42          1           0        3.660974    4.851162   -0.380362
     43          1           0        5.967489    4.197125    0.338250
     44          1           0        5.942167   -0.076877    0.839027
     45          1           0        4.796732   -4.548190    0.325063
     46          1           0        2.333783   -4.584919    0.064958
     47          1           0        2.314617   -0.311968    0.419388
     48          1           0        0.446304   -1.358897    0.130958
     49          1           0       -0.653066   -0.832961   -1.627254
     50          1           0       -2.809634    0.190768   -2.065401
     51          1           0       -4.798490   -3.197225   -0.332010
     52          1           0       -2.590075   -4.256914    0.099058
     53          1           0       -5.307782   -0.148612   -2.294491
     54          1           0       -6.094656   -1.459805   -1.423560
     55          1           0       -4.723932    1.804253   -1.263755
     56          1           0       -5.767066    2.267826    0.078313
     57          1           0       -3.458572    2.611538    0.792627
     58          1           0       -2.990891    0.982529    0.295642
     59          1           0       -5.912204    2.204994    2.467362
     60          1           0       -4.364465    2.926857    2.951535
     61          1           0       -5.017688    1.550409    3.853457
     62          1           0       -4.937930   -0.623594    2.946795
     63          1           0       -3.897465   -0.938318    1.552029
     64          1           0       -6.743045    0.208198    1.497920
     65          1           0       -6.248341   -1.378063    0.914752
     66          1           0        6.817407   -2.031239    1.557410
     67          1           0        6.952008   -1.865528   -0.202138
     68          1           0        6.852213   -3.464941    0.534690
 ---------------------------------------------------------------------

 The electronic state is 1-A.
 Alpha  occ. eigenvalues --  -19.23412 -14.49282 -14.48321 -14.46751 -14.46096
 Alpha  occ. eigenvalues --  -14.45764 -14.43617 -14.43135 -10.41778 -10.40081
 Alpha  occ. eigenvalues --  -10.37615 -10.36338 -10.35325 -10.35085 -10.34623
 Alpha  occ. eigenvalues --  -10.34135 -10.34016 -10.33623 -10.32863 -10.32367
 Alpha  occ. eigenvalues --  -10.31860 -10.31492 -10.31178 -10.30936 -10.30708
 Alpha  occ. eigenvalues --  -10.30688 -10.30677 -10.30586 -10.30533 -10.30403
 Alpha  occ. eigenvalues --  -10.30377 -10.30220 -10.30020 -10.29974 -10.29575
 Alpha  occ. eigenvalues --  -10.28740 -10.28405  -1.13444  -1.12295  -1.06322
 Alpha  occ. eigenvalues --   -1.04565  -1.03829  -1.03634  -1.00715  -0.99558
 Alpha  occ. eigenvalues --   -0.96086  -0.94671  -0.93098  -0.89778  -0.88124
 Alpha  occ. eigenvalues --   -0.87389  -0.86227  -0.85399  -0.84542  -0.83783
 Alpha  occ. eigenvalues --   -0.81888  -0.79581  -0.78270  -0.77798  -0.76320
 Alpha  occ. eigenvalues --   -0.73881  -0.73301  -0.73025  -0.72621  -0.70870
 Alpha  occ. eigenvalues --   -0.70314  -0.69615  -0.68039  -0.66413  -0.65150
 Alpha  occ. eigenvalues --   -0.63656  -0.63409  -0.62228  -0.61762  -0.60211
 Alpha  occ. eigenvalues --   -0.58848  -0.58045  -0.57570  -0.56611  -0.56101
 Alpha  occ. eigenvalues --   -0.55817  -0.55236  -0.55134  -0.54965  -0.54255
 Alpha  occ. eigenvalues --   -0.53867  -0.53239  -0.53154  -0.52612  -0.52175
 Alpha  occ. eigenvalues --   -0.51912  -0.51510  -0.51370  -0.50999  -0.50575
 Alpha  occ. eigenvalues --   -0.50365  -0.50116  -0.49974  -0.49497  -0.48335
 Alpha  occ. eigenvalues --   -0.47217  -0.46906  -0.46619  -0.46319  -0.46210
 Alpha  occ. eigenvalues --   -0.45762  -0.45236  -0.44797  -0.44045  -0.43932
 Alpha  occ. eigenvalues --   -0.43328  -0.43017  -0.42141  -0.41766  -0.41439
 Alpha  occ. eigenvalues --   -0.40964  -0.40777  -0.39912  -0.38187  -0.37592
 Alpha  occ. eigenvalues --   -0.35821  -0.35293  -0.34002  -0.33447  -0.33373
 Alpha  occ. eigenvalues --   -0.32818  -0.31904  -0.30772  -0.29115  -0.27080
 Alpha  occ. eigenvalues --   -0.24996
 Alpha virt. eigenvalues --   -0.00292   0.02872   0.03586   0.04480   0.06433
 Alpha virt. eigenvalues --    0.07258   0.08204   0.10371   0.13887   0.14814
 Alpha virt. eigenvalues --    0.15728   0.16386   0.17252   0.17441   0.18252

 Mulliken atomic charges:
              1
     1  C   -0.197838
     2  C   -0.154408
     3  C    0.035517
     4  C    0.009576
     5  N   -0.437524
     6  C    0.035732
     7  C    0.295141
     8  C   -0.254761
     9  C    0.049014
    10  N   -0.493035
    11  C    0.714350
    12  N   -0.568386
    13  N   -0.802043
    14  C    0.291471
    15  C    0.119865
    16  C   -0.240380
    17  C   -0.191300
    18  C    0.358131
    19  C   -0.269679
    20  N   -0.757956
    21  C    0.585729
    22  C    0.015196
    23  C   -0.205353
    24  C   -0.217902
    25  C    0.155953
    26  C   -0.223077
    27  C   -0.178380
    28  C   -0.263548
    29  N   -0.382219
    30  C   -0.183901
    31  C   -0.181779
    32  N   -0.385707
    33  C   -0.349274
    34  C   -0.182636
    35  C   -0.186531
    36  O   -0.513270
    37  C   -0.607367
    38  H    0.186142
    39  H    0.186726
    40  H    0.198122
    41  H    0.179048
    42  H    0.180745
    43  H    0.189491
    44  H    0.369211
    45  H    0.160819
    46  H    0.213082
    47  H    0.199356
    48  H    0.361553
    49  H    0.185453
    50  H    0.172063
    51  H    0.163619
    52  H    0.195608
    53  H    0.170277
    54  H    0.168921
    55  H    0.148152
    56  H    0.158354
    57  H    0.141652
    58  H    0.174892
    59  H    0.135263
    60  H    0.164117
    61  H    0.167875
    62  H    0.153493
    63  H    0.172938
    64  H    0.159417
    65  H    0.154989
    66  H    0.178045
    67  H    0.182737
    68  H    0.190419
 Sum of Mulliken atomic charges =   0.00000

 Dipole moment (field-independent basis, Debye):
    X=              0.5805    Y=              6.5719    Z=              0.4335  Tot=              6.6118
 Quadrupole moment (field-independent basis, Debye-Ang):
   XX=           -193.3017   YY=           -202.5049   ZZ=           -220.4854
   XY=              3.1067   XZ=             -1.2837   YZ=             -5.2163

 Normal termination of Gaussian 09 at Wed Mar 11 01:48:27 2020.
