                               Psi4 1.3.2 release

  ==> Input File <==

--------------------------------------------------------------------------
molecule {
0 1
 C    0.351479    4.643164   -1.973506
 C    1.672326    4.475935   -1.535108
 C    2.137551    3.196313   -1.171715
 C    1.199848    2.142672   -1.304190
 N   -0.065120    2.279747   -1.722152
 C   -0.474470    3.515816   -2.045625
 C    3.536060    2.926360   -0.672567
 C    4.563030    3.877973   -0.566800
 C    5.785923    3.399206   -0.084170
 N    6.010465    2.139742    0.279046
 C    4.962278    1.297361    0.161914
 N    3.758642    1.651548   -0.297378
 N    5.203082   -0.008837    0.562032
 C    4.415911   -1.217543    0.539558
 C    5.065812   -2.480262    0.692313
 C    4.257421   -3.629184    0.648723
 C    2.870506   -3.600896    0.462547
 C    2.247254   -2.355782    0.338450
 C    3.025909   -1.188732    0.373645
 N    0.850395   -2.140092    0.145081
 C   -0.089859   -2.892397   -0.517701
 C   -1.441914   -2.258322   -0.778457
 C   -1.601377   -0.893803   -1.071661
 C   -2.873946   -0.356971   -1.272523
 C   -4.028460   -1.158489   -1.201358
 C   -3.853249   -2.527958   -0.923459
 C   -2.582683   -3.075924   -0.730228
 C   -5.421194   -0.546961   -1.358494
 N   -6.059849    0.077601   -0.185073
 C   -5.577546    1.400148    0.273916
 C   -4.509133    1.344533    1.396319
 N   -4.911794    0.542780    2.575473
 C   -5.771405    1.207325    3.561953
 C   -5.348178   -0.797777    2.115694
 C   -6.400859   -0.776724    0.976279
 O    0.129893   -4.039016   -0.873680
 C    6.565662   -2.632894    0.878978
 H   -0.029793    5.621565   -2.250424
 H    2.308324    5.355268   -1.472207
 H    1.498035    1.125016   -1.076501
 H   -1.506351    3.602090   -2.382884
 H    4.458014    4.919350   -0.845373
 H    6.636875    4.072183    0.017160
 H    6.167462   -0.101174    0.844023
 H    4.720838   -4.610200    0.746537
 H    2.283110   -4.509322    0.408141
 H    2.547943   -0.228468    0.269442
 H    0.520095   -1.251075    0.494841
 H   -0.727062   -0.251743   -1.144667
 H   -2.957192    0.709146   -1.482995
 H   -4.720435   -3.183754   -0.848787
 H   -2.455526   -4.134250   -0.517349
 H   -5.379877    0.218352   -2.147000
 H   -6.107881   -1.330672   -1.710694
 H   -5.277862    1.994289   -0.543122
 H   -6.815405    2.129466    0.918296
 H   -4.268769    2.759668    1.843431
 H   -3.514458    0.926046    1.006274
 H   -6.754041    1.439162    3.136057
 H   -5.305090    2.138264    3.903916
 H   -5.910264    0.561724    4.436773
 H   -5.750012   -1.430728    3.055351
 H   -4.135422   -1.488881    1.589823
 H   -7.700533   -0.162259    1.627928
 H   -6.664563   -1.790641    0.644135
 H    6.903988   -2.154220    1.808872
 H    7.122963   -2.175759    0.049218
 H    6.887309   -3.682215    0.930862
}
memory 20GB
set_num_threads(6)
psi4_io.set_default_path("/scratch/bdw2292")
set freeze_core True
E, wfn = energy('mp2/6-311++G**',return_wfn=True)
oeprop(wfn,"WIBERG_LOWDIN_INDICES")
clean()
--------------------------------------------------------------------------

    Molecular point group: c1

    Geometry (in Angstrom), charge = 0, multiplicity = 1:

       Center              X                  Y                   Z               Mass
    ------------   -----------------  -----------------  -----------------  -----------------
         C            0.215454827818     4.609580496867    -1.890341650479    12.000000000000
         C            1.536301827818     4.442351496867    -1.451943650479    12.000000000000
         C            2.001526827818     3.162729496867    -1.088550650479    12.000000000000
         C            1.063823827818     2.109088496867    -1.221025650479    12.000000000000
         N           -0.201144172182     2.246163496867    -1.638987650479    14.003074004430
         C           -0.610494172182     3.482232496867    -1.962460650479    12.000000000000
         C            3.400035827818     2.892776496867    -0.589402650479    12.000000000000
         C            4.427005827818     3.844389496867    -0.483635650479    12.000000000000
         C            5.649898827818     3.365622496867    -0.001005650479    12.000000000000
         N            5.874440827818     2.106158496867     0.362210349521    14.003074004430
         C            4.826253827818     1.263777496867     0.245078349521    12.000000000000
         N            3.622617827818     1.617964496867    -0.214213650479    14.003074004430
         N            5.067057827818    -0.042420503133     0.645196349521    14.003074004430
         C            4.279886827818    -1.251126503133     0.622722349521    12.000000000000
         C            4.929787827818    -2.513845503133     0.775477349521    12.000000000000
         C            4.121396827818    -3.662767503133     0.731887349521    12.000000000000
         C            2.734481827818    -3.634479503133     0.545711349521    12.000000000000
         C            2.111229827818    -2.389365503133     0.421614349521    12.000000000000
         C            2.889884827818    -1.222315503133     0.456809349521    12.000000000000
         N            0.714370827818    -2.173675503133     0.228245349521    14.003074004430
         C           -0.225883172182    -2.925980503133    -0.434536650479    12.000000000000
         C           -1.577938172182    -2.291905503133    -0.695292650479    12.000000000000
         C           -1.737401172182    -0.927386503133    -0.988496650479    12.000000000000
         C           -3.009970172182    -0.390554503133    -1.189358650479    12.000000000000
         C           -4.164484172182    -1.192072503133    -1.118193650479    12.000000000000
         C           -3.989273172182    -2.561541503133    -0.840294650479    12.000000000000
         C           -2.718707172182    -3.109507503133    -0.647063650479    12.000000000000
         C           -5.557218172182    -0.580544503133    -1.275329650479    12.000000000000
         N           -6.195873172182     0.044017496867    -0.101908650479    14.003074004430
         C           -5.713570172182     1.366564496867     0.357080349521    12.000000000000
         C           -4.645157172182     1.310949496867     1.479483349521    12.000000000000
         N           -5.047818172182     0.509196496867     2.658637349521    14.003074004430
         C           -5.907429172182     1.173741496867     3.645117349521    12.000000000000
         C           -5.484202172182    -0.831360503133     2.198858349521    12.000000000000
         C           -6.536883172182    -0.810307503133     1.059443349521    12.000000000000
         O           -0.006131172182    -4.072599503133    -0.790515650479    15.994914619570
         C            6.429637827818    -2.666477503133     0.962142349521    12.000000000000
         H           -0.165817172182     5.587981496867    -2.167259650479     1.007825032230
         H            2.172299827818     5.321684496867    -1.389042650479     1.007825032230
         H            1.362010827818     1.091432496867    -0.993336650479     1.007825032230
         H           -1.642375172182     3.568506496867    -2.299719650479     1.007825032230
         H            4.321989827818     4.885766496867    -0.762208650479     1.007825032230
         H            6.500850827818     4.038599496867     0.100324349521     1.007825032230
         H            6.031437827818    -0.134757503133     0.927187349521     1.007825032230
         H            4.584813827818    -4.643783503133     0.829701349521     1.007825032230
         H            2.147085827818    -4.542905503133     0.491305349521     1.007825032230
         H            2.411918827818    -0.262051503133     0.352606349521     1.007825032230
         H            0.384070827818    -1.284658503133     0.578005349521     1.007825032230
         H           -0.863086172182    -0.285326503133    -1.061502650479     1.007825032230
         H           -3.093216172182     0.675562496867    -1.399830650479     1.007825032230
         H           -4.856459172182    -3.217337503133    -0.765622650479     1.007825032230
         H           -2.591550172182    -4.167833503133    -0.434184650479     1.007825032230
         H           -5.515901172182     0.184768496867    -2.063835650479     1.007825032230
         H           -6.243905172182    -1.364255503133    -1.627529650479     1.007825032230
         H           -5.413886172182     1.960705496867    -0.459957650479     1.007825032230
         H           -6.951429172182     2.095882496867     1.001460349521     1.007825032230
         H           -4.404793172182     2.726084496867     1.926595349521     1.007825032230
         H           -3.650482172182     0.892462496867     1.089438349521     1.007825032230
         H           -6.890065172182     1.405578496867     3.219221349521     1.007825032230
         H           -5.441114172182     2.104680496867     3.987080349521     1.007825032230
         H           -6.046288172182     0.528140496867     4.519937349521     1.007825032230
         H           -5.886036172182    -1.464311503133     3.138515349521     1.007825032230
         H           -4.271446172182    -1.522464503133     1.672987349521     1.007825032230
         H           -7.836557172182    -0.195842503133     1.711092349521     1.007825032230
         H           -6.800587172182    -1.824224503133     0.727299349521     1.007825032230
         H            6.767963827818    -2.187803503133     1.892036349521     1.007825032230
         H            6.986938827818    -2.209342503133     0.132382349521     1.007825032230
         H            6.751284827818    -3.715798503133     1.014026349521     1.007825032230

  Charge       = 0
  Multiplicity = 1
  Basis Set: 6-311++G**
    Blend: 6-311++G**
  Basis Set: (6-311++G** AUX)
    Blend: AUG-CC-PVTZ-JKFIT

    Orbital Energies [Eh]
    ---------------------

    Doubly Occupied:

       1A    -20.519486     2A    -15.604265     3A    -15.598394
       4A    -15.587886     5A    -15.574641     6A    -15.573198
       7A    -15.569901     8A    -15.555526     9A    -11.376094
      10A    -11.362631    11A    -11.335022    12A    -11.314493
      13A    -11.310158    14A    -11.308620    15A    -11.303823
      16A    -11.303235    17A    -11.302295    18A    -11.301780
      19A    -11.301102    20A    -11.290003    21A    -11.289959
      22A    -11.281048    23A    -11.280916    24A    -11.266213
      25A    -11.257762    26A    -11.256768    27A    -11.252835
      28A    -11.252359    29A    -11.250291    30A    -11.249689
      31A    -11.246345    32A    -11.245817    33A    -11.243488
      34A    -11.240713    35A    -11.236630    36A    -11.231914
      37A    -11.227863    38A     -1.385466    39A     -1.344884
      40A     -1.279426    41A     -1.250881    42A     -1.247401
      43A     -1.241422    44A     -1.210140    45A     -1.201051
      46A     -1.162189    47A     -1.140351    48A     -1.116476
      49A     -1.075995    50A     -1.060211    51A     -1.049235
      52A     -1.038443    53A     -1.024033    54A     -1.008981
      55A     -1.001371    56A     -0.978752    57A     -0.947050
      58A     -0.928512    59A     -0.927024    60A     -0.901565
      61A     -0.873323    62A     -0.867161    63A     -0.858469
      64A     -0.845719    65A     -0.836976    66A     -0.835859
      67A     -0.825966    68A     -0.806849    69A     -0.779132
      70A     -0.754169    71A     -0.740136    72A     -0.731458
      73A     -0.723454    74A     -0.712052    75A     -0.699067
      76A     -0.683916    77A     -0.680891    78A     -0.669057
      79A     -0.660213    80A     -0.657988    81A     -0.653279
      82A     -0.648389    83A     -0.638563    84A     -0.629727
      85A     -0.625820    86A     -0.619260    87A     -0.613310
      88A     -0.610361    89A     -0.607344    90A     -0.605114
      91A     -0.599904    92A     -0.598084    93A     -0.591300
      94A     -0.590577    95A     -0.585178    96A     -0.582762
      97A     -0.581119    98A     -0.573464    99A     -0.565154
     100A     -0.562275   101A     -0.548741   102A     -0.545003
     103A     -0.544352   104A     -0.531602   105A     -0.525747
     106A     -0.522807   107A     -0.515580   108A     -0.509465
     109A     -0.508660   110A     -0.505931   111A     -0.496054
     112A     -0.493547   113A     -0.486273   114A     -0.478484
     115A     -0.453171   116A     -0.451976   117A     -0.443824
     118A     -0.429259   119A     -0.423249   120A     -0.419260
     121A     -0.415294   122A     -0.400968   123A     -0.395228
     124A     -0.380766   125A     -0.374387   126A     -0.346787
     127A     -0.346309   128A     -0.342474   129A     -0.317624
     130A     -0.311388   131A     -0.292752

  @DF-RHF Final Energy: -1572.32652031341308

   => Energetics <=

    Nuclear Repulsion Energy =           3752.0034960474868058
    One-Electron Energy =               -9602.0524051945503743
    Two-Electron Energy =                4277.7223888336502569
    Total Energy =                      -1572.3265203134133117

  Dipole Moment: [D]
     X:     1.6127      Y:     6.1047      Z:    -0.1716     Total:     6.3165

  Basis Set: (6-311++G** AUX)
    Blend: AUG-CC-PVTZ-RI
	 Reference Energy          =   -1572.3265203134130843 [Eh]
	 Singles Energy            =      -0.0000000000000000 [Eh]
	 Same-Spin Energy          =      -1.4712328978798008 [Eh]
	 Opposite-Spin Energy      =      -4.0487029997462969 [Eh]
	 Correlation Energy        =      -5.5199358976260982 [Eh]
	 Total Energy              =   -1577.8464562110391398 [Eh]

	 ================> DF-SCS-MP2 Energies <==================
	-----------------------------------------------------------
	 SCS Same-Spin Scale       =       0.3333333333333333 [-]
	 SCS Opposite-Spin Scale   =       1.2000000000000000 [-]
	 SCS Same-Spin Energy      =      -0.4904109659599336 [Eh]
	 SCS Opposite-Spin Energy  =      -4.8584435996955557 [Eh]
	 SCS Correlation Energy    =      -5.3488545656554898 [Eh]
	 SCS Total Energy          =   -1577.6753748790686132 [Eh]
	-----------------------------------------------------------

*** Psi4 exiting successfully. Buy a developer a beer!
