                               Psi4 1.3.2 release

  ==> Input File <==

--------------------------------------------------------------------------
molecule {
0 1
 C   -0.500948    4.536968    0.093447
 C    0.899855    4.506998    0.096418
 C    1.580384    3.273405    0.140019
 C    0.757799    2.121876    0.190660
 N   -0.581617    2.129723    0.190649
 C   -1.193584    3.322635    0.140730
 C    3.085155    3.148198    0.135820
 C    3.973803    4.237002    0.146247
 C    5.335500    3.917941    0.144598
 N    5.812427    2.676617    0.126032
 C    4.892579    1.690182    0.107869
 N    3.571632    1.890506    0.117301
 N    5.429870    0.412133    0.087208
 C    4.879767   -0.920059    0.030666
 C    5.764318   -2.042058   -0.002265
 C    5.185409   -3.320938   -0.063904
 C    3.805899   -3.553914   -0.092760
 C    2.948330   -2.449933   -0.052681
 C    3.500740   -1.159644   -0.000740
 N    1.518882   -2.505229   -0.079228
 C    0.638172   -3.562804   -0.115001
 C   -0.832182   -3.204764   -0.220264
 C   -1.300693   -2.103782   -0.956434
 C   -2.648282   -1.742145   -0.908107
 C   -3.577863   -2.462699   -0.133852
 C   -3.103535   -3.599485    0.550818
 C   -1.758300   -3.974997    0.501396
 C   -5.036131   -2.013219    0.009261
 N   -5.357681   -0.594963   -0.221135
 C   -6.738643   -0.270594   -0.637370
 C   -6.956648    1.218743   -1.003944
 N   -6.516788    2.175089    0.039888
 C   -7.451929    2.412210    1.146133
 C   -5.117968    1.854672    0.408739
 C   -4.885887    0.373057    0.794534
 O    0.993744   -4.728112   -0.035663
 C    7.278572   -1.914282    0.026200
 H   -1.043840    5.476726    0.055528
 H    1.434739    5.452455    0.055501
 H    1.200416    1.134253    0.243768
 H   -2.282006    3.293562    0.143038
 H    3.673126    5.277158    0.162501
 H    6.106712    4.687534    0.158889
 H    6.436081    0.483022    0.090942
 H    5.833889   -4.195737   -0.094352
 H    3.398809   -4.556259   -0.139084
 H    2.844184   -0.307482    0.013724
 H    1.073796   -1.601244   -0.006640
 H   -0.601369   -1.515069   -1.545074
 H   -2.968396   -0.861640   -1.463244
 H   -3.790210   -4.192863    1.154022
 H   -1.400952   -4.841495    1.052315
 H   -5.592453   -2.632039   -0.709611
 H   -5.374367   -2.259115    1.026568
 H   -7.087935   -1.076882   -1.801562
 H   -7.645045   -0.634674    0.457738
 H   -8.035913    1.428252   -1.290953
 H   -6.097228    1.499839   -2.231977
 H   -7.596232    1.501172    1.737960
 H   -8.423334    2.737961    0.756678
 H   -7.069369    3.203357    1.801226
 H   -4.758382    2.566449    1.232276
 H   -4.273036    2.122469   -0.834027
 H   -5.570995    0.091891    2.057592
 H   -3.422975    0.184962    1.007047
 H    7.642840   -1.352360    0.898076
 H    7.644780   -1.398741   -0.866053
 H    7.783255   -2.883440    0.056608
}
memory 20GB
set_num_threads(6)
psi4_io.set_default_path("/scratch/bdw2292")
set freeze_core True
E, wfn = energy('mp2/6-311++G**',return_wfn=True)
oeprop(wfn,"WIBERG_LOWDIN_INDICES")
clean()
--------------------------------------------------------------------------

    Molecular point group: c1

    Geometry (in Angstrom), charge = 0, multiplicity = 1:

       Center              X                  Y                   Z               Mass
    ------------   -----------------  -----------------  -----------------  -----------------
         C           -0.648956906004     4.541679828180     0.069120064957    12.000000000000
         C            0.751846093996     4.511709828180     0.072091064957    12.000000000000
         C            1.432375093996     3.278116828180     0.115692064957    12.000000000000
         C            0.609790093996     2.126587828180     0.166333064957    12.000000000000
         N           -0.729625906004     2.134434828180     0.166322064957    14.003074004430
         C           -1.341592906004     3.327346828180     0.116403064957    12.000000000000
         C            2.937146093996     3.152909828180     0.111493064957    12.000000000000
         C            3.825794093996     4.241713828180     0.121920064957    12.000000000000
         C            5.187491093996     3.922652828180     0.120271064957    12.000000000000
         N            5.664418093996     2.681328828180     0.101705064957    14.003074004430
         C            4.744570093996     1.694893828180     0.083542064957    12.000000000000
         N            3.423623093996     1.895217828180     0.092974064957    14.003074004430
         N            5.281861093996     0.416844828180     0.062881064957    14.003074004430
         C            4.731758093996    -0.915347171820     0.006339064957    12.000000000000
         C            5.616309093996    -2.037346171820    -0.026591935043    12.000000000000
         C            5.037400093996    -3.316226171820    -0.088230935043    12.000000000000
         C            3.657890093996    -3.549202171820    -0.117086935043    12.000000000000
         C            2.800321093996    -2.445221171820    -0.077007935043    12.000000000000
         C            3.352731093996    -1.154932171820    -0.025066935043    12.000000000000
         N            1.370873093996    -2.500517171820    -0.103554935043    14.003074004430
         C            0.490163093996    -3.558092171820    -0.139327935043    12.000000000000
         C           -0.980190906004    -3.200052171820    -0.244590935043    12.000000000000
         C           -1.448701906004    -2.099070171820    -0.980760935043    12.000000000000
         C           -2.796290906004    -1.737433171820    -0.932433935043    12.000000000000
         C           -3.725871906004    -2.457987171820    -0.158178935043    12.000000000000
         C           -3.251543906004    -3.594773171820     0.526491064957    12.000000000000
         C           -1.906308906004    -3.970285171820     0.477069064957    12.000000000000
         C           -5.184139906004    -2.008507171820    -0.015065935043    12.000000000000
         N           -5.505689906004    -0.590251171820    -0.245461935043    14.003074004430
         C           -6.886651906004    -0.265882171820    -0.661696935043    12.000000000000
         C           -7.104656906004     1.223454828180    -1.028270935043    12.000000000000
         N           -6.664796906004     2.179800828180     0.015561064957    14.003074004430
         C           -7.599937906004     2.416921828180     1.121806064957    12.000000000000
         C           -5.265976906004     1.859383828180     0.384412064957    12.000000000000
         C           -5.033895906004     0.377768828180     0.770207064957    12.000000000000
         O            0.845735093996    -4.723400171820    -0.059989935043    15.994914619570
         C            7.130563093996    -1.909570171820     0.001873064957    12.000000000000
         H           -1.191848906004     5.481437828180     0.031201064957     1.007825032230
         H            1.286730093996     5.457166828180     0.031174064957     1.007825032230
         H            1.052407093996     1.138964828180     0.219441064957     1.007825032230
         H           -2.430014906004     3.298273828180     0.118711064957     1.007825032230
         H            3.525117093996     5.281869828180     0.138174064957     1.007825032230
         H            5.958703093996     4.692245828180     0.134562064957     1.007825032230
         H            6.288072093996     0.487733828180     0.066615064957     1.007825032230
         H            5.685880093996    -4.191025171820    -0.118678935043     1.007825032230
         H            3.250800093996    -4.551547171820    -0.163410935043     1.007825032230
         H            2.696175093996    -0.302770171820    -0.010602935043     1.007825032230
         H            0.925787093996    -1.596532171820    -0.030966935043     1.007825032230
         H           -0.749377906004    -1.510357171820    -1.569400935043     1.007825032230
         H           -3.116404906004    -0.856928171820    -1.487570935043     1.007825032230
         H           -3.938218906004    -4.188151171820     1.129695064957     1.007825032230
         H           -1.548960906004    -4.836783171820     1.027988064957     1.007825032230
         H           -5.740461906004    -2.627327171820    -0.733937935043     1.007825032230
         H           -5.522375906004    -2.254403171820     1.002241064957     1.007825032230
         H           -7.235943906004    -1.072170171820    -1.825888935043     1.007825032230
         H           -7.793053906004    -0.629962171820     0.433411064957     1.007825032230
         H           -8.183921906004     1.432963828180    -1.315279935043     1.007825032230
         H           -6.245236906004     1.504550828180    -2.256303935043     1.007825032230
         H           -7.744240906004     1.505883828180     1.713633064957     1.007825032230
         H           -8.571342906004     2.742672828180     0.732351064957     1.007825032230
         H           -7.217377906004     3.208068828180     1.776899064957     1.007825032230
         H           -4.906390906004     2.571160828180     1.207949064957     1.007825032230
         H           -4.421044906004     2.127180828180    -0.858353935043     1.007825032230
         H           -5.719003906004     0.096602828180     2.033265064957     1.007825032230
         H           -3.570983906004     0.189673828180     0.982720064957     1.007825032230
         H            7.494831093996    -1.347648171820     0.873749064957     1.007825032230
         H            7.496771093996    -1.394029171820    -0.890379935043     1.007825032230
         H            7.635246093996    -2.878728171820     0.032281064957     1.007825032230

  Charge       = 0
  Multiplicity = 1
  Basis Set: 6-311++G**
    Blend: 6-311++G**
  Basis Set: (6-311++G** AUX)
    Blend: AUG-CC-PVTZ-JKFIT

    Orbital Energies [Eh]
    ---------------------

    Doubly Occupied:

       1A    -20.519674     2A    -15.602754     3A    -15.600051
       4A    -15.585657     5A    -15.581972     6A    -15.572396
       7A    -15.571513     8A    -15.569168     9A    -11.374095
      10A    -11.362223    11A    -11.344725    12A    -11.339681
      13A    -11.333762    14A    -11.319666    15A    -11.317792
      16A    -11.311660    17A    -11.301266    18A    -11.297345
      19A    -11.295781    20A    -11.291390    21A    -11.286195
      22A    -11.278613    23A    -11.277552    24A    -11.261943
      25A    -11.261655    26A    -11.260751    27A    -11.253030
      28A    -11.250714    29A    -11.250539    30A    -11.247766
      31A    -11.245332    32A    -11.243934    33A    -11.239814
      34A    -11.238400    35A    -11.232633    36A    -11.228891
      37A    -11.222483    38A     -1.384100    39A     -1.342900
      40A     -1.273960    41A     -1.256333    42A     -1.249640
      43A     -1.239935    44A     -1.213944    45A     -1.207415
      46A     -1.159604    47A     -1.138068    48A     -1.113004
      49A     -1.073002    50A     -1.059401    51A     -1.045588
      52A     -1.036560    53A     -1.019809    54A     -1.006388
      55A     -0.998662    56A     -0.984582    57A     -0.948430
      58A     -0.930652    59A     -0.923511    60A     -0.899200
      61A     -0.869772    62A     -0.865812    63A     -0.855107
      64A     -0.840166    65A     -0.836289    66A     -0.830879
      67A     -0.824103    68A     -0.801955    69A     -0.775593
      70A     -0.751959    71A     -0.735730    72A     -0.728745
      73A     -0.719255    74A     -0.705504    75A     -0.693997
      76A     -0.680861    77A     -0.669270    78A     -0.663454
      79A     -0.656114    80A     -0.653330    81A     -0.650278
      82A     -0.647020    83A     -0.637722    84A     -0.631978
      85A     -0.626429    86A     -0.617985    87A     -0.615093
      88A     -0.609720    89A     -0.605973    90A     -0.601275
      91A     -0.599894    92A     -0.592480    93A     -0.590413
      94A     -0.588415    95A     -0.584085    96A     -0.579491
      97A     -0.575539    98A     -0.570802    99A     -0.559284
     100A     -0.557849   101A     -0.547676   102A     -0.546397
     103A     -0.541393   104A     -0.530505   105A     -0.525349
     106A     -0.521713   107A     -0.513904   108A     -0.512276
     109A     -0.508514   110A     -0.507226   111A     -0.496912
     112A     -0.493728   113A     -0.482357   114A     -0.478110
     115A     -0.449815   116A     -0.448051   117A     -0.444172
     118A     -0.437183   119A     -0.425406   120A     -0.423357
     121A     -0.412472   122A     -0.399760   123A     -0.396984
     124A     -0.372178   125A     -0.364885   126A     -0.343784
     127A     -0.342755   128A     -0.340363   129A     -0.332613
     130A     -0.312571   131A     -0.287157

  @DF-RHF Final Energy: -1572.26814598678334

   => Energetics <=

    Nuclear Repulsion Energy =           3680.4940027005764023
    One-Electron Energy =               -9459.0909338111669058
    Two-Electron Energy =                4206.3287851238073927
    Total Energy =                      -1572.2681459867835656

  Dipole Moment: [D]
     X:    -1.7058      Y:     6.9280      Z:     0.9978     Total:     7.2043

  Basis Set: (6-311++G** AUX)
    Blend: AUG-CC-PVTZ-RI
	 Reference Energy          =   -1572.2681459867833382 [Eh]
	 Singles Energy            =      -0.0000000000000000 [Eh]
	 Same-Spin Energy          =      -1.4703879247042317 [Eh]
	 Opposite-Spin Energy      =      -4.0533821491043618 [Eh]
	 Correlation Energy        =      -5.5237700738085938 [Eh]
	 Total Energy              =   -1577.7919160605920297 [Eh]

	 ================> DF-SCS-MP2 Energies <==================
	-----------------------------------------------------------
	 SCS Same-Spin Scale       =       0.3333333333333333 [-]
	 SCS Opposite-Spin Scale   =       1.2000000000000000 [-]
	 SCS Same-Spin Energy      =      -0.4901293082347439 [Eh]
	 SCS Opposite-Spin Energy  =      -4.8640585789252340 [Eh]
	 SCS Correlation Energy    =      -5.3541878871599780 [Eh]
	 SCS Total Energy          =   -1577.6223338739432620 [Eh]
	-----------------------------------------------------------

*** Psi4 exiting successfully. Buy a developer a beer!
