                               Psi4 1.3.2 release

  ==> Input File <==

--------------------------------------------------------------------------
molecule {
0 1
 C    9.970728   -0.247322   -1.239580
 C    9.007798    0.752782   -1.050811
 C    7.682681    0.405186   -0.716709
 C    7.417090   -0.982253   -0.620459
 N    8.322785   -1.951573   -0.805253
 C    9.576546   -1.582215   -1.103229
 C    6.587601    1.420579   -0.501405
 C    6.733120    2.802538   -0.708156
 C    5.582504    3.570338   -0.512157
 N    4.409284    3.076096   -0.133529
 C    4.366095    1.742323    0.076378
 N    5.401323    0.919412   -0.097359
 N    3.120144    1.307368    0.493270
 C    2.482448    0.051517    0.802104
 C    3.155379   -1.052131    1.411752
 C    2.403161   -2.219370    1.632679
 C    1.052341   -2.358552    1.303638
 C    0.396808   -1.265705    0.730137
 C    1.118818   -0.083545    0.488614
 N   -0.979184   -1.246441    0.324802
 C   -1.992576   -2.151971    0.544746
 C   -3.364506   -1.847654   -0.025824
 C   -3.566881   -1.130300   -1.216344
 C   -4.859382   -0.890713   -1.687988
 C   -5.991918   -1.363813   -0.999141
 C   -5.774679   -2.095003    0.184274
 C   -4.485375   -2.347167    0.658487
 C   -7.406567   -1.074277   -1.504078
 N   -8.074653    0.171051   -1.085088
 C   -7.607903    1.456244   -1.653027
 C   -6.568156    2.207185   -0.781788
 N   -6.985355    2.418198    0.623692
 C   -7.871352    3.558642    0.882529
 C   -7.403986    1.115589    1.192678
 C   -8.441421    0.339317    0.340131
 O   -1.826869   -3.171470    1.195136
 C    4.561315   -1.053563    1.986641
 H   10.998925   -0.000311   -1.486887
 H    9.322173    1.788463   -1.152972
 H    6.409998   -1.323226   -0.409073
 H   10.289351   -2.392756   -1.245454
 H    7.649129    3.276647   -1.038189
 H    5.605187    4.647626   -0.673941
 H    2.432220    2.047493    0.508531
 H    2.875569   -3.073850    2.117018
 H    0.517876   -3.279935    1.499317
 H    0.630510    0.763141    0.024631
 H   -1.275865   -0.373492   -0.087460
 H   -2.708952   -0.770253   -1.778366
 H   -4.983046   -0.324113   -2.610686
 H   -6.622742   -2.481337    0.749396
 H   -4.326916   -2.921905    1.567664
 H   -7.390625   -1.073947   -2.603775
 H   -8.059321   -1.904506   -1.197748
 H   -7.284608    1.330124   -2.654753
 H   -8.865277    2.408466   -1.709395
 H   -6.330173    3.518027   -1.403368
 H   -5.475206    1.575835   -0.767584
 H   -8.844648    3.419468    0.398716
 H   -7.418362    4.482393    0.505148
 H   -8.027276    3.678739    1.960682
 H   -7.916309    1.318473    2.445191
 H   -6.228818    0.312429    1.318685
 H   -9.747773    1.230564    0.371419
 H   -8.705043   -0.604143    0.779208
 H    4.935290   -0.046736    2.207417
 H    5.274402   -1.540655    1.312520
 H    4.613275   -1.599237    2.939571
}
memory 20GB
set_num_threads(6)
psi4_io.set_default_path("/scratch/bdw2292")
set freeze_core True
E, wfn = energy('mp2/6-311++G**',return_wfn=True)
oeprop(wfn,"WIBERG_LOWDIN_INDICES")
clean()
--------------------------------------------------------------------------

    Molecular point group: c1

    Geometry (in Angstrom), charge = 0, multiplicity = 1:

       Center              X                  Y                   Z               Mass
    ------------   -----------------  -----------------  -----------------  -----------------
         C            9.816903733466    -0.197260866295    -1.208065462236    12.000000000000
         C            8.853973733466     0.802843133705    -1.019296462236    12.000000000000
         C            7.528856733466     0.455247133705    -0.685194462236    12.000000000000
         C            7.263265733466    -0.932191866295    -0.588944462236    12.000000000000
         N            8.168960733466    -1.901511866295    -0.773738462236    14.003074004430
         C            9.422721733466    -1.532153866295    -1.071714462236    12.000000000000
         C            6.433776733466     1.470640133705    -0.469890462236    12.000000000000
         C            6.579295733466     2.852599133705    -0.676641462236    12.000000000000
         C            5.428679733466     3.620399133705    -0.480642462236    12.000000000000
         N            4.255459733466     3.126157133705    -0.102014462236    14.003074004430
         C            4.212270733466     1.792384133705     0.107892537764    12.000000000000
         N            5.247498733466     0.969473133705    -0.065844462236    14.003074004430
         N            2.966319733466     1.357429133705     0.524784537764    14.003074004430
         C            2.328623733466     0.101578133705     0.833618537764    12.000000000000
         C            3.001554733466    -1.002069866295     1.443266537764    12.000000000000
         C            2.249336733466    -2.169308866295     1.664193537764    12.000000000000
         C            0.898516733466    -2.308490866295     1.335152537764    12.000000000000
         C            0.242983733466    -1.215643866295     0.761651537764    12.000000000000
         C            0.964993733466    -0.033483866295     0.520128537764    12.000000000000
         N           -1.133008266534    -1.196379866295     0.356316537764    14.003074004430
         C           -2.146400266534    -2.101909866295     0.576260537764    12.000000000000
         C           -3.518330266534    -1.797592866295     0.005690537764    12.000000000000
         C           -3.720705266534    -1.080238866295    -1.184829462236    12.000000000000
         C           -5.013206266534    -0.840651866295    -1.656473462236    12.000000000000
         C           -6.145742266534    -1.313751866295    -0.967626462236    12.000000000000
         C           -5.928503266534    -2.044941866295     0.215788537764    12.000000000000
         C           -4.639199266534    -2.297105866295     0.690001537764    12.000000000000
         C           -7.560391266534    -1.024215866295    -1.472563462236    12.000000000000
         N           -8.228477266534     0.221112133705    -1.053573462236    14.003074004430
         C           -7.761727266534     1.506305133705    -1.621512462236    12.000000000000
         C           -6.721980266534     2.257246133705    -0.750273462236    12.000000000000
         N           -7.139179266534     2.468259133705     0.655206537764    14.003074004430
         C           -8.025176266534     3.608703133705     0.914043537764    12.000000000000
         C           -7.557810266534     1.165650133705     1.224192537764    12.000000000000
         C           -8.595245266534     0.389378133705     0.371645537764    12.000000000000
         O           -1.980693266534    -3.121408866295     1.226650537764    15.994914619570
         C            4.407490733466    -1.003501866295     2.018155537764    12.000000000000
         H           10.845100733466     0.049750133705    -1.455372462236     1.007825032230
         H            9.168348733466     1.838524133705    -1.121457462236     1.007825032230
         H            6.256173733466    -1.273164866295    -0.377558462236     1.007825032230
         H           10.135526733466    -2.342694866295    -1.213939462236     1.007825032230
         H            7.495304733466     3.326708133705    -1.006674462236     1.007825032230
         H            5.451362733466     4.697687133705    -0.642426462236     1.007825032230
         H            2.278395733466     2.097554133705     0.540045537764     1.007825032230
         H            2.721744733466    -3.023788866295     2.148532537764     1.007825032230
         H            0.364051733466    -3.229873866295     1.530831537764     1.007825032230
         H            0.476685733466     0.813202133705     0.056145537764     1.007825032230
         H           -1.429689266534    -0.323430866295    -0.055945462236     1.007825032230
         H           -2.862776266534    -0.720191866295    -1.746851462236     1.007825032230
         H           -5.136870266534    -0.274051866295    -2.579171462236     1.007825032230
         H           -6.776566266534    -2.431275866295     0.780910537764     1.007825032230
         H           -4.480740266534    -2.871843866295     1.599178537764     1.007825032230
         H           -7.544449266534    -1.023885866295    -2.572260462236     1.007825032230
         H           -8.213145266534    -1.854444866295    -1.166233462236     1.007825032230
         H           -7.438432266534     1.380185133705    -2.623238462236     1.007825032230
         H           -9.019101266534     2.458527133705    -1.677880462236     1.007825032230
         H           -6.483997266534     3.568088133705    -1.371853462236     1.007825032230
         H           -5.629030266534     1.625896133705    -0.736069462236     1.007825032230
         H           -8.998472266534     3.469529133705     0.430230537764     1.007825032230
         H           -7.572186266534     4.532454133705     0.536662537764     1.007825032230
         H           -8.181100266534     3.728800133705     1.992196537764     1.007825032230
         H           -8.070133266534     1.368534133705     2.476705537764     1.007825032230
         H           -6.382642266534     0.362490133705     1.350199537764     1.007825032230
         H           -9.901597266534     1.280625133705     0.402933537764     1.007825032230
         H           -8.858867266534    -0.554081866295     0.810722537764     1.007825032230
         H            4.781465733466     0.003325133705     2.238931537764     1.007825032230
         H            5.120577733466    -1.490593866295     1.344034537764     1.007825032230
         H            4.459450733466    -1.549175866295     2.971085537764     1.007825032230

  Charge       = 0
  Multiplicity = 1
  Basis Set: 6-311++G**
    Blend: 6-311++G**
  Basis Set: (6-311++G** AUX)
    Blend: AUG-CC-PVTZ-JKFIT

    Orbital Energies [Eh]
    ---------------------

    Doubly Occupied:

       1A    -20.528476     2A    -15.610530     3A    -15.599944
       4A    -15.578838     5A    -15.574580     6A    -15.567137
       7A    -15.564466     8A    -15.561742     9A    -11.372713
      10A    -11.372577    11A    -11.328658    12A    -11.322972
      13A    -11.317813    14A    -11.312343    15A    -11.309923
      16A    -11.307207    17A    -11.303300    18A    -11.299691
      19A    -11.290765    20A    -11.288429    21A    -11.287860
      22A    -11.280353    23A    -11.270502    24A    -11.268491
      25A    -11.267703    26A    -11.267103    27A    -11.259475
      28A    -11.258466    29A    -11.255905    30A    -11.255717
      31A    -11.246924    32A    -11.245666    33A    -11.245562
      34A    -11.244614    35A    -11.238821    36A    -11.228714
      37A    -11.217588    38A     -1.395120    39A     -1.339500
      40A     -1.267267    41A     -1.256669    42A     -1.253044
      43A     -1.239958    44A     -1.206609    45A     -1.202902
      46A     -1.172527    47A     -1.140804    48A     -1.108224
      49A     -1.070938    50A     -1.067135    51A     -1.041190
      52A     -1.039406    53A     -1.034799    54A     -1.008043
      55A     -1.003448    56A     -0.983753    57A     -0.944434
      58A     -0.929949    59A     -0.918781    60A     -0.895022
      61A     -0.872252    62A     -0.863462    63A     -0.852513
      64A     -0.847465    65A     -0.840186    66A     -0.837390
      67A     -0.835844    68A     -0.810023    69A     -0.781108
      70A     -0.753384    71A     -0.741898    72A     -0.730642
      73A     -0.717495    74A     -0.710824    75A     -0.692676
      76A     -0.687927    77A     -0.678184    78A     -0.667681
      79A     -0.661438    80A     -0.657736    81A     -0.652374
      82A     -0.648464    83A     -0.641452    84A     -0.634626
      85A     -0.627908    86A     -0.625218    87A     -0.611715
      88A     -0.610507    89A     -0.606014    90A     -0.603389
      91A     -0.599438    92A     -0.599026    93A     -0.593723
      94A     -0.586358    95A     -0.585269    96A     -0.583227
      97A     -0.581580    98A     -0.567887    99A     -0.565238
     100A     -0.550185   101A     -0.546469   102A     -0.540595
     103A     -0.536882   104A     -0.533685   105A     -0.529900
     106A     -0.524389   107A     -0.512419   108A     -0.511015
     109A     -0.506785   110A     -0.505392   111A     -0.502637
     112A     -0.500885   113A     -0.487352   114A     -0.481686
     115A     -0.448212   116A     -0.445043   117A     -0.436768
     118A     -0.431142   119A     -0.429056   120A     -0.426343
     121A     -0.406909   122A     -0.398572   123A     -0.391540
     124A     -0.387222   125A     -0.368822   126A     -0.356419
     127A     -0.352125   128A     -0.339358   129A     -0.318614
     130A     -0.315807   131A     -0.293046

  @DF-RHF Final Energy: -1572.29276793420536

   => Energetics <=

    Nuclear Repulsion Energy =           3501.5596645640252973
    One-Electron Energy =               -9101.0050588624344527
    Two-Electron Energy =                4027.1526263642035701
    Total Energy =                      -1572.2927679342055853

  Dipole Moment: [D]
     X:     1.8058      Y:     4.1367      Z:    -2.4227     Total:     5.1228

  Basis Set: (6-311++G** AUX)
    Blend: AUG-CC-PVTZ-RI
	 Reference Energy          =   -1572.2927679342053580 [Eh]
	 Singles Energy            =      -0.0000000000000000 [Eh]
	 Same-Spin Energy          =      -1.4703266861023017 [Eh]
	 Opposite-Spin Energy      =      -4.0499225485904766 [Eh]
	 Correlation Energy        =      -5.5202492346927787 [Eh]
	 Total Energy              =   -1577.8130171688981136 [Eh]

	 ================> DF-SCS-MP2 Energies <==================
	-----------------------------------------------------------
	 SCS Same-Spin Scale       =       0.3333333333333333 [-]
	 SCS Opposite-Spin Scale   =       1.2000000000000000 [-]
	 SCS Same-Spin Energy      =      -0.4901088953674338 [Eh]
	 SCS Opposite-Spin Energy  =      -4.8599070583085719 [Eh]
	 SCS Correlation Energy    =      -5.3500159536760057 [Eh]
	 SCS Total Energy          =   -1577.6427838878812508 [Eh]
	-----------------------------------------------------------

*** Psi4 exiting successfully. Buy a developer a beer!
