                               Psi4 1.3.2 release

  ==> Input File <==

--------------------------------------------------------------------------
molecule {
0 1
 C   -1.504001    5.343231   -3.156249
 C   -2.582528    5.053604   -2.309697
 C   -2.754805    3.748509   -1.804659
 C   -1.792128    2.797946   -2.223492
 N   -0.757406    3.054662   -3.033091
 C   -0.620602    4.309711   -3.484988
 C   -3.888979    3.353007   -0.890746
 C   -4.925630    4.208785   -0.482518
 C   -5.897918    3.636684    0.343129
 N   -5.883712    2.372926    0.753272
 C   -4.840617    1.627385    0.330129
 N   -3.863037    2.072309   -0.465322
 N   -4.855197    0.315769    0.779220
 C   -4.056052   -0.852367    0.511374
 C   -4.545911   -2.130480    0.921462
 C   -3.740877   -3.246534    0.643010
 C   -2.503223   -3.173925   -0.004359
 C   -2.033656   -1.914506   -0.393893
 C   -2.812783   -0.775715   -0.129985
 N   -0.782467   -1.679553   -1.033122
 C    0.128124   -2.578174   -1.523276
 C    1.483308   -2.590782   -0.848552
 C    1.648979   -2.358295    0.526468
 C    2.922095   -2.399713    1.099540
 C    4.067319   -2.671119    0.327018
 C    3.882288   -2.918593   -1.046963
 C    2.612857   -2.886451   -1.628409
 C    5.459643   -2.709112    0.960089
 N    6.164122   -1.439371    1.206909
 C    5.810753   -0.621053    2.387117
 C    4.804665    0.520510    2.089741
 N    5.209823    1.411070    0.976712
 C    6.173632    2.470722    1.298650
 C    5.516991    0.584090   -0.216174
 C    6.507388   -0.579046    0.052160
 O   -0.117676   -3.324242   -2.454573
 C   -5.878916   -2.337992    1.620948
 H   -1.351027    6.342722   -3.552635
 H   -3.263171    5.862353   -2.056319
 H   -1.872664    1.766436   -1.900866
 H    0.229789    4.488450   -4.140758
 H   -5.014209    5.244978   -0.784886
 H   -6.742070    4.230784    0.692214
 H   -5.686821    0.170597    1.331583
 H   -4.086541   -4.237606    0.934687
 H   -1.925293   -4.069514   -0.201873
 H   -2.452998    0.199533   -0.419063
 H   -0.511452   -0.720248   -1.198423
 H    0.776959   -2.154834    1.142697
 H    3.018396   -2.223950    2.170878
 H    4.739214   -3.143400   -1.681340
 H    2.475672   -3.088785   -2.687866
 H    5.390530   -3.238572    1.921295
 H    6.114177   -3.316510    0.318323
 H    5.515822   -1.226554    3.189032
 H    7.139839    0.108148    2.844586
 H    4.690048    1.339641    3.331685
 H    3.747743    0.096262    1.842827
 H    7.143589    2.047615    1.583160
 H    5.799413    3.084742    2.125678
 H    6.317034    3.126666    0.432272
 H    5.850793    1.226708   -1.031156
 H    4.183816   -0.068799   -0.657517
 H    7.879848    0.101784    0.374414
 H    6.663880   -1.225841   -0.903928
 H   -6.711835   -1.930581    1.030447
 H   -5.897263   -1.845253    2.603429
 H   -6.111520   -3.397470    1.796387
}
memory 20GB
set_num_threads(6)
psi4_io.set_default_path("/scratch/bdw2292")
set freeze_core True
E, wfn = energy('mp2/6-311++G**',return_wfn=True)
oeprop(wfn,"WIBERG_LOWDIN_INDICES")
clean()
--------------------------------------------------------------------------

    Molecular point group: c1

    Geometry (in Angstrom), charge = 0, multiplicity = 1:

       Center              X                  Y                   Z               Mass
    ------------   -----------------  -----------------  -----------------  -----------------
         C           -1.356730846357     5.248233490330    -2.899666716578    12.000000000000
         C           -2.435257846357     4.958606490330    -2.053114716578    12.000000000000
         C           -2.607534846357     3.653511490330    -1.548076716578    12.000000000000
         C           -1.644857846357     2.702948490330    -1.966909716578    12.000000000000
         N           -0.610135846357     2.959664490330    -2.776508716578    14.003074004430
         C           -0.473331846357     4.214713490330    -3.228405716578    12.000000000000
         C           -3.741708846357     3.258009490330    -0.634163716578    12.000000000000
         C           -4.778359846357     4.113787490330    -0.225935716578    12.000000000000
         C           -5.750647846357     3.541686490330     0.599711283422    12.000000000000
         N           -5.736441846357     2.277928490330     1.009854283422    14.003074004430
         C           -4.693346846357     1.532387490330     0.586711283422    12.000000000000
         N           -3.715766846357     1.977311490330    -0.208739716578    14.003074004430
         N           -4.707926846357     0.220771490330     1.035802283422    14.003074004430
         C           -3.908781846357    -0.947364509670     0.767956283422    12.000000000000
         C           -4.398640846357    -2.225477509670     1.178044283422    12.000000000000
         C           -3.593606846357    -3.341531509670     0.899592283422    12.000000000000
         C           -2.355952846357    -3.268922509670     0.252223283422    12.000000000000
         C           -1.886385846357    -2.009503509670    -0.137310716578    12.000000000000
         C           -2.665512846357    -0.870712509670     0.126597283422    12.000000000000
         N           -0.635196846357    -1.774550509670    -0.776539716578    14.003074004430
         C            0.275394153643    -2.673171509670    -1.266693716578    12.000000000000
         C            1.630578153643    -2.685779509670    -0.591969716578    12.000000000000
         C            1.796249153643    -2.453292509670     0.783050283422    12.000000000000
         C            3.069365153643    -2.494710509670     1.356122283422    12.000000000000
         C            4.214589153643    -2.766116509670     0.583600283422    12.000000000000
         C            4.029558153643    -3.013590509670    -0.790380716578    12.000000000000
         C            2.760127153643    -2.981448509670    -1.371826716578    12.000000000000
         C            5.606913153643    -2.804109509670     1.216671283422    12.000000000000
         N            6.311392153643    -1.534368509670     1.463491283422    14.003074004430
         C            5.958023153643    -0.716050509670     2.643699283422    12.000000000000
         C            4.951935153643     0.425512490330     2.346323283422    12.000000000000
         N            5.357093153643     1.316072490330     1.233294283422    14.003074004430
         C            6.320902153643     2.375724490330     1.555232283422    12.000000000000
         C            5.664261153643     0.489092490330     0.040408283422    12.000000000000
         C            6.654658153643    -0.674043509670     0.308742283422    12.000000000000
         O            0.029594153643    -3.419239509670    -2.197990716578    15.994914619570
         C           -5.731645846357    -2.432989509670     1.877530283422    12.000000000000
         H           -1.203756846357     6.247724490330    -3.296052716578     1.007825032230
         H           -3.115900846357     5.767355490330    -1.799736716578     1.007825032230
         H           -1.725393846357     1.671438490330    -1.644283716578     1.007825032230
         H            0.377059153643     4.393452490330    -3.884175716578     1.007825032230
         H           -4.866938846357     5.149980490330    -0.528303716578     1.007825032230
         H           -6.594799846357     4.135786490330     0.948796283422     1.007825032230
         H           -5.539550846357     0.075599490330     1.588165283422     1.007825032230
         H           -3.939270846357    -4.332603509670     1.191269283422     1.007825032230
         H           -1.778022846357    -4.164511509670     0.054709283422     1.007825032230
         H           -2.305727846357     0.104535490330    -0.162480716578     1.007825032230
         H           -0.364181846357    -0.815245509670    -0.941840716578     1.007825032230
         H            0.924229153643    -2.249831509670     1.399279283422     1.007825032230
         H            3.165666153643    -2.318947509670     2.427460283422     1.007825032230
         H            4.886484153643    -3.238397509670    -1.424757716578     1.007825032230
         H            2.622942153643    -3.183782509670    -2.431283716578     1.007825032230
         H            5.537800153643    -3.333569509670     2.177877283422     1.007825032230
         H            6.261447153643    -3.411507509670     0.574905283422     1.007825032230
         H            5.663092153643    -1.321551509670     3.445614283422     1.007825032230
         H            7.287109153643     0.013150490330     3.101168283422     1.007825032230
         H            4.837318153643     1.244643490330     3.588267283422     1.007825032230
         H            3.895013153643     0.001264490330     2.099409283422     1.007825032230
         H            7.290859153643     1.952617490330     1.839742283422     1.007825032230
         H            5.946683153643     2.989744490330     2.382260283422     1.007825032230
         H            6.464304153643     3.031668490330     0.688854283422     1.007825032230
         H            5.998063153643     1.131710490330    -0.774573716578     1.007825032230
         H            4.331086153643    -0.163796509670    -0.400934716578     1.007825032230
         H            8.027118153643     0.006786490330     0.630996283422     1.007825032230
         H            6.811150153643    -1.320838509670    -0.647345716578     1.007825032230
         H           -6.564564846357    -2.025578509670     1.287029283422     1.007825032230
         H           -5.749992846357    -1.940250509670     2.860011283422     1.007825032230
         H           -5.964249846357    -3.492467509670     2.052969283422     1.007825032230

  Charge       = 0
  Multiplicity = 1
  Basis Set: 6-311++G**
    Blend: 6-311++G**
  Basis Set: (6-311++G** AUX)
    Blend: AUG-CC-PVTZ-JKFIT

    Orbital Energies [Eh]
    ---------------------

    Doubly Occupied:

       1A    -20.547542     2A    -15.602035     3A    -15.580017
       4A    -15.578308     5A    -15.574437     6A    -15.571088
       7A    -15.567715     8A    -15.557847     9A    -11.373140
      10A    -11.369033    11A    -11.331397    12A    -11.317963
      13A    -11.310703    14A    -11.306055    15A    -11.305474
      16A    -11.303895    17A    -11.302822    18A    -11.297845
      19A    -11.293641    20A    -11.293288    21A    -11.283599
      22A    -11.283191    23A    -11.274093    24A    -11.262657
      25A    -11.258781    26A    -11.258549    27A    -11.256404
      28A    -11.253825    29A    -11.250156    30A    -11.248810
      31A    -11.248724    32A    -11.246141    33A    -11.243492
      34A    -11.242331    35A    -11.234282    36A    -11.227432
      37A    -11.227244    38A     -1.401225    39A     -1.341872
      40A     -1.270876    41A     -1.250738    42A     -1.249261
      43A     -1.240100    44A     -1.206418    45A     -1.203173
      46A     -1.165292    47A     -1.139009    48A     -1.110311
      49A     -1.071560    50A     -1.061340    51A     -1.043910
      52A     -1.037593    53A     -1.027902    54A     -1.008175
      55A     -1.004142    56A     -0.980903    57A     -0.946039
      58A     -0.930713    59A     -0.921628    60A     -0.898331
      61A     -0.870243    62A     -0.867260    63A     -0.853329
      64A     -0.851735    65A     -0.841274    66A     -0.834871
      67A     -0.823251    68A     -0.809309    69A     -0.778071
      70A     -0.749761    71A     -0.736771    72A     -0.730549
      73A     -0.717535    74A     -0.712818    75A     -0.703303
      76A     -0.683288    77A     -0.679710    78A     -0.667453
      79A     -0.663545    80A     -0.654348    81A     -0.653450
      82A     -0.650017    83A     -0.642317    84A     -0.633365
      85A     -0.625293    86A     -0.619799    87A     -0.618166
      88A     -0.612372    89A     -0.611548    90A     -0.607698
      91A     -0.601424    92A     -0.599089    93A     -0.598004
      94A     -0.588230    95A     -0.581993    96A     -0.580626
      97A     -0.580499    98A     -0.576956    99A     -0.554953
     100A     -0.549395   101A     -0.542599   102A     -0.540616
     103A     -0.537949   104A     -0.533563   105A     -0.530012
     106A     -0.526548   107A     -0.513333   108A     -0.510441
     109A     -0.507529   110A     -0.503310   111A     -0.498872
     112A     -0.493987   113A     -0.490706   114A     -0.482919
     115A     -0.459327   116A     -0.449189   117A     -0.443080
     118A     -0.434419   119A     -0.428875   120A     -0.421785
     121A     -0.411196   122A     -0.395540   123A     -0.394226
     124A     -0.379476   125A     -0.370898   126A     -0.348747
     127A     -0.346969   128A     -0.341582   129A     -0.313083
     130A     -0.311300   131A     -0.286210

  @DF-RHF Final Energy: -1572.29890645353089

   => Energetics <=

    Nuclear Repulsion Energy =           3665.8712391024851058
    One-Electron Energy =               -9429.8275632697332185
    Two-Electron Energy =                4191.6574177137163133
    Total Energy =                      -1572.2989064535313446

  Dipole Moment: [D]
     X:    -0.8045      Y:     4.4454      Z:     1.6945     Total:     4.8249

  Basis Set: (6-311++G** AUX)
    Blend: AUG-CC-PVTZ-RI
	 Reference Energy          =   -1572.2989064535308898 [Eh]
	 Singles Energy            =      -0.0000000000000000 [Eh]
	 Same-Spin Energy          =      -1.4681162941971286 [Eh]
	 Opposite-Spin Energy      =      -4.0460136818005221 [Eh]
	 Correlation Energy        =      -5.5141299759976512 [Eh]
	 Total Energy              =   -1577.8130364295284380 [Eh]

	 ================> DF-SCS-MP2 Energies <==================
	-----------------------------------------------------------
	 SCS Same-Spin Scale       =       0.3333333333333333 [-]
	 SCS Opposite-Spin Scale   =       1.2000000000000000 [-]
	 SCS Same-Spin Energy      =      -0.4893720980657095 [Eh]
	 SCS Opposite-Spin Energy  =      -4.8552164181606265 [Eh]
	 SCS Correlation Energy    =      -5.3445885162263362 [Eh]
	 SCS Total Energy          =   -1577.6434949697572847 [Eh]
	-----------------------------------------------------------

*** Psi4 exiting successfully. Buy a developer a beer!
