 Gaussian 09, Revision A.02,
 Gaussian 09:  EM64L-G09RevA.02 11-Jun-2009

 --------------------------------------------------
 #P opt=(,maxcycle=400) wB97XD/6-31G* MaxDisk=100GB
 --------------------------------------------------

 --------------------------------------------------------------
 MOLECULE0 Rotatable Bond Optimization on node37.bme.utexas.edu
 --------------------------------------------------------------
 Symbolic Z-matrix:
 Charge =  0 Multiplicity = 1

 SCF Done:  E(RwB97XD) =  -1581.52429793     A.U. after   16 cycles
 SCF Done:  E(RwB97XD) =  -1581.58330526     A.U. after   13 cycles
 SCF Done:  E(RwB97XD) =  -1581.68091654     A.U. after   14 cycles
 SCF Done:  E(RwB97XD) =  -1581.72996006     A.U. after   14 cycles
 SCF Done:  E(RwB97XD) =  -1581.74986773     A.U. after   14 cycles
 SCF Done:  E(RwB97XD) =  -1581.75686111     A.U. after   17 cycles
 SCF Done:  E(RwB97XD) =  -1581.45579825     A.U. after   17 cycles
 SCF Done:  E(RwB97XD) =  -1581.75806514     A.U. after   17 cycles
 SCF Done:  E(RwB97XD) =  -1581.74089819     A.U. after   17 cycles
 SCF Done:  E(RwB97XD) =  -1581.75998187     A.U. after   17 cycles
 SCF Done:  E(RwB97XD) =  -1581.76402156     A.U. after   12 cycles
 SCF Done:  E(RwB97XD) =  -1581.76403062     A.U. after   12 cycles
 SCF Done:  E(RwB97XD) =  -1581.76403441     A.U. after    9 cycles
 SCF Done:  E(RwB97XD) =  -1581.76403513     A.U. after    9 cycles
 SCF Done:  E(RwB97XD) =  -1581.76403621     A.U. after    8 cycles
 SCF Done:  E(RwB97XD) =  -1581.76403651     A.U. after    8 cycles
 SCF Done:  E(RwB97XD) =  -1581.76403693     A.U. after    8 cycles
 SCF Done:  E(RwB97XD) =  -1581.76403712     A.U. after    8 cycles
 SCF Done:  E(RwB97XD) =  -1581.76403723     A.U. after    7 cycles
 SCF Done:  E(RwB97XD) =  -1581.76403723     A.U. after    7 cycles
 Optimization completed.
    -- Stationary point found.

                         Standard orientation:
 ---------------------------------------------------------------------
 Center     Atomic      Atomic             Coordinates (Angstroms)
 Number     Number       Type             X           Y           Z
 ---------------------------------------------------------------------
      1          6           0        0.604955    4.168364   -0.063677
      2          6           0       -0.773764    4.156568    0.106391
      3          6           0       -1.476645    2.982268   -0.160543
      4          6           0       -0.736592    1.874672   -0.598072
      5          7           0        0.584735    1.869083   -0.753537
      6          6           0        1.242057    3.004198   -0.486097
      7          6           0       -2.940968    2.846815    0.030158
      8          6           0       -3.830796    3.918111    0.086964
      9          6           0       -5.169434    3.594396    0.297274
     10          7           0       -5.621106    2.351671    0.420504
     11          6           0       -4.680950    1.391860    0.325133
     12          7           0       -3.376674    1.591022    0.154249
     13          7           0       -5.149199    0.107582    0.419177
     14          6           0       -4.459692   -1.101194    0.203122
     15          6           0       -5.192215   -2.224394   -0.226897
     16          6           0       -4.489295   -3.402790   -0.461755
     17          6           0       -3.109335   -3.511057   -0.310814
     18          6           0       -2.406319   -2.390059    0.125194
     19          6           0       -3.087697   -1.207152    0.410129
     20          7           0       -1.010619   -2.349881    0.314310
     21          6           0       -0.063562   -3.225789   -0.153066
     22          6           0        1.349264   -2.802652    0.136639
     23          6           0        1.710013   -2.093230    1.285296
     24          6           0        3.037585   -1.749834    1.507984
     25          6           0        4.030692   -2.085348    0.586050
     26          6           0        3.661288   -2.805204   -0.552449
     27          6           0        2.339416   -3.169620   -0.773711
     28          6           0        5.483495   -1.697446    0.819888
     29          7           0        5.911482   -0.365152    0.434414
     30          6           0        5.562200    0.751954    1.301306
     31          6           0        4.310608    1.523939    0.854306
     32          7           0        4.365534    1.922892   -0.550749
     33          6           0        5.286306    3.014718   -0.820364
     34          6           0        4.584438    0.739180   -1.382252
     35          6           0        5.851070   -0.034747   -0.983867
     36          8           0       -0.317099   -4.250842   -0.763442
     37          6           0       -6.682127   -2.150954   -0.444105
     38          1           0        1.182844    5.063559    0.141937
     39          1           0       -1.288577    5.043061    0.466571
     40          1           0       -1.257818    0.951433   -0.837085
     41          1           0        2.323795    2.950963   -0.612755
     42          1           0       -3.518627    4.947622   -0.036999
     43          1           0       -5.920373    4.379148    0.363770
     44          1           0       -6.155293    0.064439    0.480487
     45          1           0       -5.041882   -4.275913   -0.799458
     46          1           0       -2.589969   -4.430354   -0.540557
     47          1           0       -2.541788   -0.341800    0.757020
     48          1           0       -0.658008   -1.457145    0.628590
     49          1           0        0.964074   -1.845662    2.036025
     50          1           0        3.308325   -1.224989    2.421441
     51          1           0        4.424259   -3.097644   -1.270271
     52          1           0        2.056698   -3.747455   -1.647649
     53          1           0        5.715057   -1.817761    1.885081
     54          1           0        6.119433   -2.412059    0.281359
     55          1           0        5.431980    0.379638    2.323521
     56          1           0        6.415831    1.446445    1.326574
     57          1           0        4.180162    2.421261    1.472144
     58          1           0        3.416424    0.901682    0.978829
     59          1           0        6.348325    2.804565   -0.609651
     60          1           0        4.994665    3.883370   -0.218856
     61          1           0        5.205049    3.293613   -1.876404
     62          1           0        4.646204    1.050941   -2.431610
     63          1           0        3.701557    0.097486   -1.278157
     64          1           0        6.736661    0.567402   -1.237292
     65          1           0        5.924679   -0.960062   -1.565444
     66          1           0       -6.950604   -1.370492   -1.167123
     67          1           0       -7.226852   -1.942711    0.487003
     68          1           0       -7.062477   -3.099794   -0.831058
 ---------------------------------------------------------------------

 The electronic state is 1-A.
 Alpha  occ. eigenvalues --  -19.23556 -14.48722 -14.48568 -14.45461 -14.44977
 Alpha  occ. eigenvalues --  -14.44766 -14.44137 -14.43887 -10.41116 -10.40304
 Alpha  occ. eigenvalues --  -10.36857 -10.35717 -10.34350 -10.33983 -10.33482
 Alpha  occ. eigenvalues --  -10.32916 -10.32838 -10.32722 -10.32243 -10.31837
 Alpha  occ. eigenvalues --  -10.31574 -10.31414 -10.31339 -10.31311 -10.31297
 Alpha  occ. eigenvalues --  -10.31274 -10.31169 -10.31106 -10.30973 -10.30726
 Alpha  occ. eigenvalues --  -10.30583 -10.30492 -10.30243 -10.29845 -10.29421
 Alpha  occ. eigenvalues --  -10.28841 -10.28340  -1.13695  -1.11703  -1.04647
 Alpha  occ. eigenvalues --   -1.04394  -1.04049  -1.03464  -1.00137  -1.00023
 Alpha  occ. eigenvalues --   -0.96429  -0.94465  -0.91892  -0.88887  -0.88039
 Alpha  occ. eigenvalues --   -0.86392  -0.86119  -0.85845  -0.85004  -0.83467
 Alpha  occ. eigenvalues --   -0.82346  -0.79696  -0.78120  -0.77203  -0.75695
 Alpha  occ. eigenvalues --   -0.73775  -0.73098  -0.72603  -0.71673  -0.71038
 Alpha  occ. eigenvalues --   -0.70627  -0.69356  -0.68046  -0.66243  -0.64617
 Alpha  occ. eigenvalues --   -0.64071  -0.62982  -0.62089  -0.60746  -0.59869
 Alpha  occ. eigenvalues --   -0.58435  -0.57890  -0.56934  -0.56375  -0.55760
 Alpha  occ. eigenvalues --   -0.55570  -0.55416  -0.54931  -0.54689  -0.54306
 Alpha  occ. eigenvalues --   -0.54048  -0.53541  -0.53293  -0.52909  -0.52324
 Alpha  occ. eigenvalues --   -0.51326  -0.51263  -0.50941  -0.50650  -0.50494
 Alpha  occ. eigenvalues --   -0.50266  -0.49625  -0.49164  -0.48818  -0.48575
 Alpha  occ. eigenvalues --   -0.47283  -0.47189  -0.46797  -0.46459  -0.45868
 Alpha  occ. eigenvalues --   -0.45412  -0.45207  -0.44747  -0.44207  -0.43766
 Alpha  occ. eigenvalues --   -0.43346  -0.42640  -0.42508  -0.41969  -0.41446
 Alpha  occ. eigenvalues --   -0.41369  -0.40931  -0.39490  -0.37745  -0.36534
 Alpha  occ. eigenvalues --   -0.34521  -0.34376  -0.33745  -0.33305  -0.32953
 Alpha  occ. eigenvalues --   -0.32255  -0.32165  -0.31175  -0.28988  -0.27016
 Alpha  occ. eigenvalues --   -0.25577
 Alpha virt. eigenvalues --    0.00605   0.03183   0.04123   0.05506   0.06078
 Alpha virt. eigenvalues --    0.08110   0.08592   0.10657   0.14269   0.15048
 Alpha virt. eigenvalues --    0.16204   0.16663   0.16933   0.18005   0.18857

 Mulliken atomic charges:
              1
     1  C   -0.201452
     2  C   -0.158948
     3  C    0.030066
     4  C   -0.001196
     5  N   -0.435039
     6  C    0.012241
     7  C    0.296461
     8  C   -0.253088
     9  C    0.046137
    10  N   -0.493820
    11  C    0.700688
    12  N   -0.566107
    13  N   -0.790187
    14  C    0.284699
    15  C    0.122428
    16  C   -0.240673
    17  C   -0.186845
    18  C    0.351605
    19  C   -0.258315
    20  N   -0.762674
    21  C    0.588995
    22  C    0.019439
    23  C   -0.202576
    24  C   -0.216593
    25  C    0.158305
    26  C   -0.222858
    27  C   -0.174035
    28  C   -0.267473
    29  N   -0.382152
    30  C   -0.181594
    31  C   -0.184475
    32  N   -0.393824
    33  C   -0.352077
    34  C   -0.184056
    35  C   -0.186838
    36  O   -0.511649
    37  C   -0.604388
    38  H    0.175090
    39  H    0.178092
    40  H    0.197061
    41  H    0.218942
    42  H    0.178682
    43  H    0.186358
    44  H    0.366477
    45  H    0.160427
    46  H    0.212410
    47  H    0.191941
    48  H    0.363580
    49  H    0.174380
    50  H    0.162876
    51  H    0.165264
    52  H    0.199353
    53  H    0.171337
    54  H    0.170820
    55  H    0.154206
    56  H    0.159387
    57  H    0.150150
    58  H    0.175567
    59  H    0.144163
    60  H    0.162074
    61  H    0.171643
    62  H    0.156984
    63  H    0.187069
    64  H    0.159180
    65  H    0.158441
    66  H    0.184446
    67  H    0.176604
    68  H    0.188866
 Sum of Mulliken atomic charges =   0.00000

 Dipole moment (field-independent basis, Debye):
    X=              0.9900    Y=              5.3050    Z=              1.5277  Tot=              5.6087
 Quadrupole moment (field-independent basis, Debye-Ang):
   XX=           -192.0673   YY=           -207.5134   ZZ=           -213.4581
   XY=              0.0201   XZ=              0.3674   YZ=              1.6091

 Normal termination of Gaussian 09 at Tue Mar  3 13:07:51 2020.
