                               Psi4 1.3.2 release

  ==> Input File <==

--------------------------------------------------------------------------
molecule {
0 1
 C   -0.156824    4.500300   -1.244537
 C    1.177100    4.392563   -0.827092
 C    1.757383    3.121615   -0.644211
 C    0.918468    2.017543   -0.936962
 N   -0.354912    2.097568   -1.343791
 C   -0.878097    3.324977   -1.483611
 C    3.179810    2.910358   -0.184312
 C    4.129984    3.920272    0.034835
 C    5.398989    3.482978    0.431414
 N    5.732533    2.209125    0.620377
 C    4.750482    1.307202    0.411738
 N    3.511977    1.621291    0.020532
 N    5.096971   -0.019667    0.629810
 C    4.389891   -1.266090    0.455087
 C    5.116650   -2.494503    0.422655
 C    4.375972   -3.673413    0.227065
 C    2.985346   -3.706882    0.065181
 C    2.285809   -2.497615    0.123786
 C    2.997663   -1.303638    0.317641
 N    0.873872   -2.329316   -0.027216
 C   -0.117540   -3.205933   -0.399660
 C   -1.473646   -2.603463   -0.715034
 C   -1.622245   -1.352113   -1.337301
 C   -2.891914   -0.818835   -1.561075
 C   -4.055215   -1.512961   -1.181711
 C   -3.893701   -2.781541   -0.591399
 C   -2.626586   -3.329234   -0.375285
 C   -5.436526   -0.879029   -1.349133
 N   -5.914024    0.046993   -0.304801
 C   -5.338259    1.409536   -0.236878
 C   -4.155085    1.567580    0.752934
 N   -4.447939    1.095857    2.126642
 C   -5.172097    2.026205    3.000892
 C   -4.972554   -0.289725    2.056174
 C   -6.146594   -0.481533    1.059662
 O    0.056933   -4.412688   -0.460582
 C    6.626958   -2.574249    0.562261
 H   -0.626371    5.469950   -1.380052
 H    1.732058    5.307425   -0.635020
 H    1.309689    1.009138   -0.861791
 H   -1.916053    3.365396   -1.810613
 H    3.938603    4.976358   -0.109895
 H    6.197174    4.204060    0.605666
 H    6.072039   -0.077088    0.883302
 H    4.899342   -4.627678    0.182824
 H    2.452672   -4.636208   -0.097184
 H    2.463309   -0.369104    0.364888
 H    0.559196   -1.376913    0.095619
 H   -0.742504   -0.780086   -1.622127
 H   -2.964893    0.169233   -2.015326
 H   -4.768201   -3.349962   -0.275318
 H   -2.509119   -4.303138    0.092812
 H   -5.460522   -0.330843   -2.301953
 H   -6.183017   -1.682577   -1.427353
 H   -5.113718    1.766808   -1.195645
 H   -6.480382    2.350466    0.331925
 H   -3.820225    3.015045    0.812698
 H   -3.194565    0.991047    0.366658
 H   -6.187361    2.207106    2.630566
 H   -4.640479    2.982710    3.058263
 H   -5.235636    1.617743    4.015933
 H   -5.257619   -0.643736    3.106520
 H   -3.843515   -1.152431    1.584514
 H   -7.347789    0.339549    1.672183
 H   -6.477980   -1.558707    1.013708
 H    6.958034   -2.212402    1.545961
 H    7.133912   -1.967090   -0.201124
 H    7.013796   -3.597287    0.456708
}
memory 20GB
set_num_threads(6)
psi4_io.set_default_path("/scratch/bdw2292")
set freeze_core True
E, wfn = energy('mp2/6-311++G**',return_wfn=True)
oeprop(wfn,"WIBERG_LOWDIN_INDICES")
clean()
--------------------------------------------------------------------------

    Molecular point group: c1

    Geometry (in Angstrom), charge = 0, multiplicity = 1:

       Center              X                  Y                   Z               Mass
    ------------   -----------------  -----------------  -----------------  -----------------
         C           -0.248977984028     4.514031690409    -1.220076104780    12.000000000000
         C            1.084946015972     4.406294690409    -0.802631104780    12.000000000000
         C            1.665229015972     3.135346690409    -0.619750104780    12.000000000000
         C            0.826314015972     2.031274690409    -0.912501104780    12.000000000000
         N           -0.447065984028     2.111299690409    -1.319330104780    14.003074004430
         C           -0.970250984028     3.338708690409    -1.459150104780    12.000000000000
         C            3.087656015972     2.924089690409    -0.159851104780    12.000000000000
         C            4.037830015972     3.934003690409     0.059295895220    12.000000000000
         C            5.306835015972     3.496709690409     0.455874895220    12.000000000000
         N            5.640379015972     2.222856690409     0.644837895220    14.003074004430
         C            4.658328015972     1.320933690409     0.436198895220    12.000000000000
         N            3.419823015972     1.635022690409     0.044992895220    14.003074004430
         N            5.004817015972    -0.005935309591     0.654270895220    14.003074004430
         C            4.297737015972    -1.252358309591     0.479547895220    12.000000000000
         C            5.024496015972    -2.480771309591     0.447115895220    12.000000000000
         C            4.283818015972    -3.659681309591     0.251525895220    12.000000000000
         C            2.893192015972    -3.693150309591     0.089641895220    12.000000000000
         C            2.193655015972    -2.483883309591     0.148246895220    12.000000000000
         C            2.905509015972    -1.289906309591     0.342101895220    12.000000000000
         N            0.781718015972    -2.315584309591    -0.002755104780    14.003074004430
         C           -0.209693984028    -3.192201309591    -0.375199104780    12.000000000000
         C           -1.565799984028    -2.589731309591    -0.690573104780    12.000000000000
         C           -1.714398984028    -1.338381309591    -1.312840104780    12.000000000000
         C           -2.984067984028    -0.805103309591    -1.536614104780    12.000000000000
         C           -4.147368984028    -1.499229309591    -1.157250104780    12.000000000000
         C           -3.985854984028    -2.767809309591    -0.566938104780    12.000000000000
         C           -2.718739984028    -3.315502309591    -0.350824104780    12.000000000000
         C           -5.528679984028    -0.865297309591    -1.324672104780    12.000000000000
         N           -6.006177984028     0.060724690409    -0.280340104780    14.003074004430
         C           -5.430412984028     1.423267690409    -0.212417104780    12.000000000000
         C           -4.247238984028     1.581311690409     0.777394895220    12.000000000000
         N           -4.540092984028     1.109588690409     2.151102895220    14.003074004430
         C           -5.264250984028     2.039936690409     3.025352895220    12.000000000000
         C           -5.064707984028    -0.275993309591     2.080634895220    12.000000000000
         C           -6.238747984028    -0.467801309591     1.084122895220    12.000000000000
         O           -0.035220984028    -4.398956309591    -0.436121104780    15.994914619570
         C            6.534804015972    -2.560517309591     0.586721895220    12.000000000000
         H           -0.718524984028     5.483681690409    -1.355591104780     1.007825032230
         H            1.639904015972     5.321156690409    -0.610559104780     1.007825032230
         H            1.217535015972     1.022869690409    -0.837330104780     1.007825032230
         H           -2.008206984028     3.379127690409    -1.786152104780     1.007825032230
         H            3.846449015972     4.990089690409    -0.085434104780     1.007825032230
         H            6.105020015972     4.217791690409     0.630126895220     1.007825032230
         H            5.979885015972    -0.063356309591     0.907762895220     1.007825032230
         H            4.807188015972    -4.613946309591     0.207284895220     1.007825032230
         H            2.360518015972    -4.622476309591    -0.072723104780     1.007825032230
         H            2.371155015972    -0.355372309591     0.389348895220     1.007825032230
         H            0.467042015972    -1.363181309591     0.120079895220     1.007825032230
         H           -0.834657984028    -0.766354309591    -1.597666104780     1.007825032230
         H           -3.057046984028     0.182964690409    -1.990865104780     1.007825032230
         H           -4.860354984028    -3.336230309591    -0.250857104780     1.007825032230
         H           -2.601272984028    -4.289406309591     0.117272895220     1.007825032230
         H           -5.552675984028    -0.317111309591    -2.277492104780     1.007825032230
         H           -6.275170984028    -1.668845309591    -1.402892104780     1.007825032230
         H           -5.205871984028     1.780539690409    -1.171184104780     1.007825032230
         H           -6.572535984028     2.364197690409     0.356385895220     1.007825032230
         H           -3.912378984028     3.028776690409     0.837158895220     1.007825032230
         H           -3.286718984028     1.004778690409     0.391118895220     1.007825032230
         H           -6.279514984028     2.220837690409     2.655026895220     1.007825032230
         H           -4.732632984028     2.996441690409     3.082723895220     1.007825032230
         H           -5.327789984028     1.631474690409     4.040393895220     1.007825032230
         H           -5.349772984028    -0.630004309591     3.130980895220     1.007825032230
         H           -3.935668984028    -1.138699309591     1.608974895220     1.007825032230
         H           -7.439942984028     0.353280690409     1.696643895220     1.007825032230
         H           -6.570133984028    -1.544975309591     1.038168895220     1.007825032230
         H            6.865880015972    -2.198670309591     1.570421895220     1.007825032230
         H            7.041758015972    -1.953358309591    -0.176663104780     1.007825032230
         H            6.921642015972    -3.583555309591     0.481168895220     1.007825032230

  Charge       = 0
  Multiplicity = 1
  Basis Set: 6-311++G**
    Blend: 6-311++G**
  Basis Set: (6-311++G** AUX)
    Blend: AUG-CC-PVTZ-JKFIT

    Orbital Energies [Eh]
    ---------------------

    Doubly Occupied:

       1A    -20.522387     2A    -15.604435     3A    -15.601898
       4A    -15.587582     5A    -15.574774     6A    -15.574315
       7A    -15.569419     8A    -15.556016     9A    -11.376098
      10A    -11.364641    11A    -11.334866    12A    -11.314551
      13A    -11.313638    14A    -11.306352    15A    -11.305111
      16A    -11.303811    17A    -11.301788    18A    -11.301695
      19A    -11.301276    20A    -11.292982    21A    -11.289551
      22A    -11.281853    23A    -11.280736    24A    -11.265606
      25A    -11.258482    26A    -11.258175    27A    -11.254372
      28A    -11.252867    29A    -11.251331    30A    -11.247537
      31A    -11.247359    32A    -11.246814    33A    -11.244675
      34A    -11.240528    35A    -11.235608    36A    -11.230538
      37A    -11.225642    38A     -1.387147    39A     -1.344599
      40A     -1.279011    41A     -1.252266    42A     -1.247898
      43A     -1.241618    44A     -1.210041    45A     -1.201735
      46A     -1.163360    47A     -1.140027    48A     -1.116016
      49A     -1.075691    50A     -1.061040    51A     -1.048920
      52A     -1.038365    53A     -1.025359    54A     -1.008391
      55A     -1.001867    56A     -0.979394    57A     -0.947317
      58A     -0.928878    59A     -0.926736    60A     -0.901166
      61A     -0.873123    62A     -0.868008    63A     -0.858342
      64A     -0.848443    65A     -0.838055    66A     -0.836379
      67A     -0.826145    68A     -0.807208    69A     -0.778811
      70A     -0.754298    71A     -0.740002    72A     -0.731674
      73A     -0.722151    74A     -0.710452    75A     -0.699245
      76A     -0.683413    77A     -0.680975    78A     -0.668633
      79A     -0.660788    80A     -0.657752    81A     -0.652194
      82A     -0.649479    83A     -0.638054    84A     -0.630879
      85A     -0.624182    86A     -0.619306    87A     -0.613077
      88A     -0.609539    89A     -0.608014    90A     -0.603341
      91A     -0.602681    92A     -0.598082    93A     -0.596502
      94A     -0.591918    95A     -0.587812    96A     -0.581730
      97A     -0.580058    98A     -0.576272    99A     -0.567075
     100A     -0.561851   101A     -0.548138   102A     -0.544891
     103A     -0.541398   104A     -0.532272   105A     -0.527269
     106A     -0.524069   107A     -0.514837   108A     -0.509809
     109A     -0.509166   110A     -0.507259   111A     -0.496916
     112A     -0.494059   113A     -0.485127   114A     -0.481871
     115A     -0.457572   116A     -0.452200   117A     -0.443817
     118A     -0.429529   119A     -0.426727   120A     -0.421393
     121A     -0.414956   122A     -0.400650   123A     -0.394466
     124A     -0.380954   125A     -0.373965   126A     -0.347244
     127A     -0.346469   128A     -0.343434   129A     -0.315223
     130A     -0.311610   131A     -0.290714

  @DF-RHF Final Energy: -1572.32739800778518

   => Energetics <=

    Nuclear Repulsion Energy =           3794.0251886244332127
    One-Electron Energy =               -9686.0049992299591395
    Two-Electron Energy =                4319.6524125977402946
    Total Energy =                      -1572.3273980077856322

  Dipole Moment: [D]
     X:     1.1102      Y:     6.3087      Z:    -0.3150     Total:     6.4134

  Basis Set: (6-311++G** AUX)
    Blend: AUG-CC-PVTZ-RI
	 Reference Energy          =   -1572.3273980077851775 [Eh]
	 Singles Energy            =      -0.0000000000000000 [Eh]
	 Same-Spin Energy          =      -1.4722113710403650 [Eh]
	 Opposite-Spin Energy      =      -4.0500610082016877 [Eh]
	 Correlation Energy        =      -5.5222723792420529 [Eh]
	 Total Energy              =   -1577.8496703870271176 [Eh]

	 ================> DF-SCS-MP2 Energies <==================
	-----------------------------------------------------------
	 SCS Same-Spin Scale       =       0.3333333333333333 [-]
	 SCS Opposite-Spin Scale   =       1.2000000000000000 [-]
	 SCS Same-Spin Energy      =      -0.4907371236801217 [Eh]
	 SCS Opposite-Spin Energy  =      -4.8600732098420254 [Eh]
	 SCS Correlation Energy    =      -5.3508103335221469 [Eh]
	 SCS Total Energy          =   -1577.6782083413072542 [Eh]
	-----------------------------------------------------------

*** Psi4 exiting successfully. Buy a developer a beer!
