                               Psi4 1.3.2 release

  ==> Input File <==

--------------------------------------------------------------------------
molecule {
0 1
 C    2.909424    5.464959   -3.835308
 C    3.035650    5.062380   -2.499881
 C    3.466739    3.755783   -2.195160
 C    3.751408    2.922877   -3.305285
 N    3.634723    3.291777   -4.588196
 C    3.220429    4.542286   -4.839440
 C    3.625586    3.235458   -0.789008
 C    3.342609    3.973067    0.375536
 C    3.545314    3.310288    1.592102
 N    3.978507    2.057008    1.694953
 C    4.223757    1.435918    0.527173
 N    4.064823    1.966260   -0.683270
 N    4.668581    0.153046    0.643678
 C    3.993123   -1.088124    0.439077
 C    4.752460   -2.285081    0.275247
 C    4.036980   -3.475813    0.074566
 C    2.640565   -3.545056    0.024895
 C    1.906375   -2.365925    0.198132
 C    2.593748   -1.155415    0.395887
 N    0.477475   -2.276664    0.161348
 C   -0.482272   -3.203381   -0.179865
 C   -1.896693   -2.692772   -0.372665
 C   -2.195623   -1.439122   -0.930806
 C   -3.519692   -1.003855   -1.019433
 C   -4.588185   -1.800437   -0.566209
 C   -4.276185   -3.076255   -0.057567
 C   -2.956039   -3.525439    0.023181
 C   -6.025583   -1.276003   -0.568190
 N   -6.481286   -0.438124    0.555056
 C   -6.022022    0.967046    0.643652
 C   -4.749002    1.173954    1.505235
 N   -4.851401    0.606797    2.871671
 C   -5.536560    1.426490    3.877555
 C   -5.274974   -0.812063    2.772636
 C   -6.543752   -1.036745    1.908820
 O   -0.238687   -4.392252   -0.310159
 C    6.271263   -2.316959    0.302945
 H    2.579573    6.467084   -4.092873
 H    2.796289    5.780844   -1.719863
 H    4.088777    1.902559   -3.145310
 H    3.138309    4.804710   -5.893019
 H    2.982330    4.994289    0.382255
 H    3.353990    3.793820    2.549461
 H    5.661106    0.149932    0.824758
 H    4.583781   -4.408871   -0.056426
 H    2.129091   -4.484293   -0.144569
 H    2.041182   -0.234203    0.523197
 H    0.119039   -1.351949    0.353158
 H   -1.386143   -0.807635   -1.288368
 H   -3.718142   -0.014014   -1.430016
 H   -5.073215   -3.723273    0.307536
 H   -2.727498   -4.510292    0.423157
 H   -6.182733   -0.693211   -1.486701
 H   -6.708381   -2.135950   -0.615145
 H   -5.886077    1.429165   -0.441177
 H   -7.121677    1.738966    1.288320
 H   -4.488754    2.530789    1.609675
 H   -3.822802    0.688860    0.994355
 H   -6.596899    1.547829    3.628803
 H   -5.071638    2.417268    3.938902
 H   -5.456397    0.957853    4.865288
 H   -5.449615   -1.275471    3.939140
 H   -4.183137   -1.526990    2.195793
 H   -7.677637   -0.395137    2.614378
 H   -6.805256   -2.188622    1.837789
 H    6.683870   -1.983904    1.266096
 H    6.691210   -1.668730   -0.471289
 H    6.675622   -3.316742    0.124596
}
memory 20GB
set_num_threads(6)
psi4_io.set_default_path("/scratch/bdw2292")
set freeze_core True
E, wfn = energy('mp2/6-311++G**',return_wfn=True)
oeprop(wfn,"WIBERG_LOWDIN_INDICES")
clean()
--------------------------------------------------------------------------

    Molecular point group: c1

    Geometry (in Angstrom), charge = 0, multiplicity = 1:

       Center              X                  Y                   Z               Mass
    ------------   -----------------  -----------------  -----------------  -----------------
         C            2.753398883556     5.417542355587    -3.718799177628    12.000000000000
         C            2.879624883556     5.014963355587    -2.383372177628    12.000000000000
         C            3.310713883556     3.708366355587    -2.078651177628    12.000000000000
         C            3.595382883556     2.875460355587    -3.188776177628    12.000000000000
         N            3.478697883556     3.244360355587    -4.471687177628    14.003074004430
         C            3.064403883556     4.494869355587    -4.722931177628    12.000000000000
         C            3.469560883556     3.188041355587    -0.672499177628    12.000000000000
         C            3.186583883556     3.925650355587     0.492044822372    12.000000000000
         C            3.389288883556     3.262871355587     1.708610822372    12.000000000000
         N            3.822481883556     2.009591355587     1.811461822372    14.003074004430
         C            4.067731883556     1.388501355587     0.643681822372    12.000000000000
         N            3.908797883556     1.918843355587    -0.566761177628    14.003074004430
         N            4.512555883556     0.105629355587     0.760186822372    14.003074004430
         C            3.837097883556    -1.135540644413     0.555585822372    12.000000000000
         C            4.596434883556    -2.332497644413     0.391755822372    12.000000000000
         C            3.880954883556    -3.523229644413     0.191074822372    12.000000000000
         C            2.484539883556    -3.592472644413     0.141403822372    12.000000000000
         C            1.750349883556    -2.413341644413     0.314640822372    12.000000000000
         C            2.437722883556    -1.202831644413     0.512395822372    12.000000000000
         N            0.321449883556    -2.324080644413     0.277856822372    14.003074004430
         C           -0.638297116444    -3.250797644413    -0.063356177628    12.000000000000
         C           -2.052718116444    -2.740188644413    -0.256156177628    12.000000000000
         C           -2.351648116444    -1.486538644413    -0.814297177628    12.000000000000
         C           -3.675717116444    -1.051271644413    -0.902924177628    12.000000000000
         C           -4.744210116444    -1.847853644413    -0.449700177628    12.000000000000
         C           -4.432210116444    -3.123671644413     0.058941822372    12.000000000000
         C           -3.112064116444    -3.572855644413     0.139689822372    12.000000000000
         C           -6.181608116444    -1.323419644413    -0.451681177628    12.000000000000
         N           -6.637311116444    -0.485540644413     0.671564822372    14.003074004430
         C           -6.178047116444     0.919629355587     0.760160822372    12.000000000000
         C           -4.905027116444     1.126537355587     1.621743822372    12.000000000000
         N           -5.007426116444     0.559380355587     2.988179822372    14.003074004430
         C           -5.692585116444     1.379073355587     3.994063822372    12.000000000000
         C           -5.430999116444    -0.859479644413     2.889144822372    12.000000000000
         C           -6.699777116444    -1.084161644413     2.025328822372    12.000000000000
         O           -0.394712116444    -4.439668644413    -0.193650177628    15.994914619570
         C            6.115237883556    -2.364375644413     0.419453822372    12.000000000000
         H            2.423547883556     6.419667355587    -3.976364177628     1.007825032230
         H            2.640263883556     5.733427355587    -1.603354177628     1.007825032230
         H            3.932751883556     1.855142355587    -3.028801177628     1.007825032230
         H            2.982283883556     4.757293355587    -5.776510177628     1.007825032230
         H            2.826304883556     4.946872355587     0.498763822372     1.007825032230
         H            3.197964883556     3.746403355587     2.665969822372     1.007825032230
         H            5.505080883556     0.102515355587     0.941266822372     1.007825032230
         H            4.427755883556    -4.456287644413     0.060082822372     1.007825032230
         H            1.973065883556    -4.531709644413    -0.028060177628     1.007825032230
         H            1.885156883556    -0.281619644413     0.639705822372     1.007825032230
         H           -0.036986116444    -1.399365644413     0.469666822372     1.007825032230
         H           -1.542168116444    -0.855051644413    -1.171859177628     1.007825032230
         H           -3.874167116444    -0.061430644413    -1.313507177628     1.007825032230
         H           -5.229240116444    -3.770689644413     0.424044822372     1.007825032230
         H           -2.883523116444    -4.557708644413     0.539665822372     1.007825032230
         H           -6.338758116444    -0.740627644413    -1.370192177628     1.007825032230
         H           -6.864406116444    -2.183366644413    -0.498636177628     1.007825032230
         H           -6.042102116444     1.381748355587    -0.324668177628     1.007825032230
         H           -7.277702116444     1.691549355587     1.404828822372     1.007825032230
         H           -4.644779116444     2.483372355587     1.726183822372     1.007825032230
         H           -3.978827116444     0.641443355587     1.110863822372     1.007825032230
         H           -6.752924116444     1.500412355587     3.745311822372     1.007825032230
         H           -5.227663116444     2.369851355587     4.055410822372     1.007825032230
         H           -5.612422116444     0.910436355587     4.981796822372     1.007825032230
         H           -5.605640116444    -1.322887644413     4.055648822372     1.007825032230
         H           -4.339162116444    -1.574406644413     2.312301822372     1.007825032230
         H           -7.833662116444    -0.442553644413     2.730886822372     1.007825032230
         H           -6.961281116444    -2.236038644413     1.954297822372     1.007825032230
         H            6.527844883556    -2.031320644413     1.382604822372     1.007825032230
         H            6.535184883556    -1.716146644413    -0.354780177628     1.007825032230
         H            6.519596883556    -3.364158644413     0.241104822372     1.007825032230

  Charge       = 0
  Multiplicity = 1
  Basis Set: 6-311++G**
    Blend: 6-311++G**
  Basis Set: (6-311++G** AUX)
    Blend: AUG-CC-PVTZ-JKFIT

    Orbital Energies [Eh]
    ---------------------

    Doubly Occupied:

       1A    -20.524809     2A    -15.604290     3A    -15.580687
       4A    -15.578499     5A    -15.578221     6A    -15.572946
       7A    -15.572734     8A    -15.556719     9A    -11.367789
      10A    -11.362701    11A    -11.333332    12A    -11.313948
      13A    -11.313656    14A    -11.311445    15A    -11.310519
      16A    -11.299537    17A    -11.298707    18A    -11.294686
      19A    -11.293801    20A    -11.292268    21A    -11.285142
      22A    -11.282223    23A    -11.275337    24A    -11.264789
      25A    -11.263968    26A    -11.263078    27A    -11.262640
      28A    -11.260353    29A    -11.255679    30A    -11.254402
      31A    -11.251721    32A    -11.247814    33A    -11.238884
      34A    -11.236721    35A    -11.232009    36A    -11.229346
      37A    -11.218121    38A     -1.389815    39A     -1.347730
      40A     -1.270787    41A     -1.251838    42A     -1.248346
      43A     -1.239854    44A     -1.213098    45A     -1.202234
      46A     -1.168331    47A     -1.137640    48A     -1.111819
      49A     -1.073928    50A     -1.063264    51A     -1.044968
      52A     -1.036472    53A     -1.031120    54A     -1.004222
      55A     -0.996651    56A     -0.980690    57A     -0.945880
      58A     -0.930009    59A     -0.923880    60A     -0.901445
      61A     -0.868327    62A     -0.866967    63A     -0.853495
      64A     -0.848354    65A     -0.836381    66A     -0.830801
      67A     -0.823530    68A     -0.809126    69A     -0.779031
      70A     -0.752023    71A     -0.739430    72A     -0.731073
      73A     -0.718708    74A     -0.716537    75A     -0.708405
      76A     -0.681787    77A     -0.676686    78A     -0.667388
      79A     -0.663306    80A     -0.656828    81A     -0.650635
      82A     -0.645406    83A     -0.637991    84A     -0.636658
      85A     -0.624143    86A     -0.616612    87A     -0.613297
      88A     -0.607972    89A     -0.607203    90A     -0.602221
      91A     -0.600600    92A     -0.590694    93A     -0.588670
      94A     -0.587970    95A     -0.583204    96A     -0.582330
      97A     -0.578664    98A     -0.575780    99A     -0.567798
     100A     -0.548958   101A     -0.544285   102A     -0.540284
     103A     -0.536086   104A     -0.532641   105A     -0.529583
     106A     -0.521264   107A     -0.512881   108A     -0.508279
     109A     -0.506738   110A     -0.505193   111A     -0.502647
     112A     -0.501245   113A     -0.490044   114A     -0.465047
     115A     -0.455523   116A     -0.449700   117A     -0.439329
     118A     -0.436537   119A     -0.430094   120A     -0.416393
     121A     -0.415542   122A     -0.414462   123A     -0.402508
     124A     -0.385470   125A     -0.381872   126A     -0.352425
     127A     -0.348481   128A     -0.341045   129A     -0.317756
     130A     -0.315586   131A     -0.287329

  @DF-RHF Final Energy: -1572.34973295430382

   => Energetics <=

    Nuclear Repulsion Energy =           3618.2421552399696338
    One-Electron Energy =               -9334.6661851977787592
    Two-Electron Energy =                4144.0742970035053077
    Total Energy =                      -1572.3497329543033629

  Dipole Moment: [D]
     X:    -0.8622      Y:     6.9620      Z:     0.7530     Total:     7.0555

  Basis Set: (6-311++G** AUX)
    Blend: AUG-CC-PVTZ-RI
	 Reference Energy          =   -1572.3497329543038177 [Eh]
	 Singles Energy            =      -0.0000000000000000 [Eh]
	 Same-Spin Energy          =      -1.4687586234253869 [Eh]
	 Opposite-Spin Energy      =      -4.0435752765939572 [Eh]
	 Correlation Energy        =      -5.5123339000193443 [Eh]
	 Total Energy              =   -1577.8620668543230749 [Eh]

	 ================> DF-SCS-MP2 Energies <==================
	-----------------------------------------------------------
	 SCS Same-Spin Scale       =       0.3333333333333333 [-]
	 SCS Opposite-Spin Scale   =       1.2000000000000000 [-]
	 SCS Same-Spin Energy      =      -0.4895862078084623 [Eh]
	 SCS Opposite-Spin Energy  =      -4.8522903319127488 [Eh]
	 SCS Correlation Energy    =      -5.3418765397212109 [Eh]
	 SCS Total Energy          =   -1577.6916094940249877 [Eh]
	-----------------------------------------------------------

*** Psi4 exiting successfully. Buy a developer a beer!
