                               Psi4 1.3.2 release

  ==> Input File <==

--------------------------------------------------------------------------
molecule {
0 1
 C    1.240141    4.891716   -0.919735
 C    2.542042    4.570785   -0.512686
 C    2.934574    3.221760   -0.415354
 C    1.954826    2.265448   -0.779750
 N    0.706297    2.551645   -1.170972
 C    0.361988    3.847485   -1.231795
 C    4.303755    2.775505    0.031827
 C    5.399542    3.621382    0.269682
 C    6.587942    2.987237    0.652535
 N    6.722461    1.671070    0.803874
 C    5.615886    0.937397    0.568976
 N    4.440672    1.447965    0.199404
 N    5.755337   -0.428744    0.736933
 C    4.881111   -1.543677    0.467985
 C    5.434529   -2.848217    0.292923
 C    4.541743   -3.892554   -0.001486
 C    3.157692   -3.725824   -0.128988
 C    2.621525   -2.450251    0.077474
 C    3.491312   -1.389538    0.376773
 N    1.234121   -2.102228   -0.007903
 C    0.138713   -2.810437   -0.447377
 C   -1.169871   -2.056406   -0.607110
 C   -1.261291   -0.682078   -0.890108
 C   -2.507440   -0.054478   -0.964198
 C   -3.706048   -0.772802   -0.791194
 C   -3.601515   -2.159728   -0.571240
 C   -2.359953   -2.793992   -0.486141
 C   -5.069701   -0.081694   -0.866552
 N   -6.071471   -0.483545    0.137898
 C   -7.462518   -0.760730   -0.278974
 C   -8.360575    0.502641   -0.264249
 N   -8.359372    1.233121    1.029558
 C   -9.271563    0.727846    2.062711
 C   -6.957992    1.481917    1.453391
 C   -6.057831    0.220048    1.436364
 O    0.192759   -4.007039   -0.689256
 C    6.922807   -3.140489    0.382902
 H    0.913181    5.924769   -0.992799
 H    3.222634    5.379959   -0.259305
 H    2.194575    1.206674   -0.778226
 H   -0.659570    4.045254   -1.552723
 H    5.380539    4.698213    0.155167
 H    7.499921    3.549653    0.850966
 H    6.713834   -0.641131    0.969526
 H    4.934157   -4.897350   -0.153826
 H    2.505888   -4.554631   -0.375175
 H    3.080999   -0.408753    0.552686
 H    1.034365   -1.146205    0.249118
 H   -0.357562   -0.096815   -1.045758
 H   -2.535240    1.017340   -1.161004
 H   -4.504713   -2.757300   -0.456322
 H   -2.297573   -3.864744   -0.308269
 H   -4.907742    1.004425   -0.841973
 H   -5.523515   -0.299270   -1.843147
 H   -7.473155   -1.351983   -1.546549
 H   -8.017232   -1.733849    0.637133
 H   -9.482791    0.231569   -0.564867
 H   -7.837815    1.442657   -1.288254
 H   -8.970893   -0.272446    2.394754
 H  -10.294881    0.678195    1.673038
 H   -9.274882    1.401416    2.927374
 H   -6.954040    2.002074    2.558225
 H   -6.396565    2.462349    0.501713
 H   -6.517254   -0.683232    2.426668
 H   -4.734566    0.557488    1.774869
 H    7.338362   -2.917720    1.376058
 H    7.485036   -2.546856   -0.343449
 H    7.159440   -4.187904    0.178612
}
memory 20GB
set_num_threads(6)
psi4_io.set_default_path("/scratch/bdw2292")
set freeze_core True
E, wfn = energy('mp2/6-311+G*',return_wfn=True)
oeprop(wfn,"WIBERG_LOWDIN_INDICES")
clean()
--------------------------------------------------------------------------

    Molecular point group: c1

    Geometry (in Angstrom), charge = 0, multiplicity = 1:

       Center              X                  Y                   Z               Mass
    ------------   -----------------  -----------------  -----------------  -----------------
         C            1.099102799269     4.883006250217    -0.907453538995    12.000000000000
         C            2.401003799269     4.562075250217    -0.500404538995    12.000000000000
         C            2.793535799269     3.213050250217    -0.403072538995    12.000000000000
         C            1.813787799269     2.256738250217    -0.767468538995    12.000000000000
         N            0.565258799269     2.542935250217    -1.158690538995    14.003074004430
         C            0.220949799269     3.838775250217    -1.219513538995    12.000000000000
         C            4.162716799269     2.766795250217     0.044108461005    12.000000000000
         C            5.258503799269     3.612672250217     0.281963461005    12.000000000000
         C            6.446903799269     2.978527250217     0.664816461005    12.000000000000
         N            6.581422799269     1.662360250217     0.816155461005    14.003074004430
         C            5.474847799269     0.928687250217     0.581257461005    12.000000000000
         N            4.299633799269     1.439255250217     0.211685461005    14.003074004430
         N            5.614298799269    -0.437453749783     0.749214461005    14.003074004430
         C            4.740072799269    -1.552386749783     0.480266461005    12.000000000000
         C            5.293490799269    -2.856926749783     0.305204461005    12.000000000000
         C            4.400704799269    -3.901263749783     0.010795461005    12.000000000000
         C            3.016653799269    -3.734533749783    -0.116706538995    12.000000000000
         C            2.480486799269    -2.458960749783     0.089755461005    12.000000000000
         C            3.350273799269    -1.398247749783     0.389054461005    12.000000000000
         N            1.093082799269    -2.110937749783     0.004378461005    14.003074004430
         C           -0.002325200731    -2.819146749783    -0.435095538995    12.000000000000
         C           -1.310909200731    -2.065115749783    -0.594828538995    12.000000000000
         C           -1.402329200731    -0.690787749783    -0.877826538995    12.000000000000
         C           -2.648478200731    -0.063187749783    -0.951916538995    12.000000000000
         C           -3.847086200731    -0.781511749783    -0.778912538995    12.000000000000
         C           -3.742553200731    -2.168437749783    -0.558958538995    12.000000000000
         C           -2.500991200731    -2.802701749783    -0.473859538995    12.000000000000
         C           -5.210739200731    -0.090403749783    -0.854270538995    12.000000000000
         N           -6.212509200731    -0.492254749783     0.150179461005    14.003074004430
         C           -7.603556200731    -0.769439749783    -0.266692538995    12.000000000000
         C           -8.501613200731     0.493931250217    -0.251967538995    12.000000000000
         N           -8.500410200731     1.224411250217     1.041839461005    14.003074004430
         C           -9.412601200731     0.719136250217     2.074992461005    12.000000000000
         C           -7.099030200731     1.473207250217     1.465672461005    12.000000000000
         C           -6.198869200731     0.211338250217     1.448645461005    12.000000000000
         O            0.051720799269    -4.015748749783    -0.676974538995    15.994914619570
         C            6.781768799269    -3.149198749783     0.395183461005    12.000000000000
         H            0.772142799269     5.916059250217    -0.980517538995     1.007825032230
         H            3.081595799269     5.371249250217    -0.247023538995     1.007825032230
         H            2.053536799269     1.197964250217    -0.765944538995     1.007825032230
         H           -0.800608200731     4.036544250217    -1.540441538995     1.007825032230
         H            5.239500799269     4.689503250217     0.167448461005     1.007825032230
         H            7.358882799269     3.540943250217     0.863247461005     1.007825032230
         H            6.572795799269    -0.649840749783     0.981807461005     1.007825032230
         H            4.793118799269    -4.906059749783    -0.141544538995     1.007825032230
         H            2.364849799269    -4.563340749783    -0.362893538995     1.007825032230
         H            2.939960799269    -0.417462749783     0.564967461005     1.007825032230
         H            0.893326799269    -1.154914749783     0.261399461005     1.007825032230
         H           -0.498600200731    -0.105524749783    -1.033476538995     1.007825032230
         H           -2.676278200731     1.008630250217    -1.148722538995     1.007825032230
         H           -4.645751200731    -2.766009749783    -0.444040538995     1.007825032230
         H           -2.438611200731    -3.873453749783    -0.295987538995     1.007825032230
         H           -5.048780200731     0.995715250217    -0.829691538995     1.007825032230
         H           -5.664553200731    -0.307979749783    -1.830865538995     1.007825032230
         H           -7.614193200731    -1.360692749783    -1.534267538995     1.007825032230
         H           -8.158270200731    -1.742558749783     0.649414461005     1.007825032230
         H           -9.623829200731     0.222859250217    -0.552585538995     1.007825032230
         H           -7.978853200731     1.433947250217    -1.275972538995     1.007825032230
         H           -9.111931200731    -0.281155749783     2.407035461005     1.007825032230
         H          -10.435919200731     0.669485250217     1.685319461005     1.007825032230
         H           -9.415920200731     1.392706250217     2.939655461005     1.007825032230
         H           -7.095078200731     1.993364250217     2.570506461005     1.007825032230
         H           -6.537603200731     2.453639250217     0.513994461005     1.007825032230
         H           -6.658292200731    -0.691941749783     2.438949461005     1.007825032230
         H           -4.875604200731     0.548778250217     1.787150461005     1.007825032230
         H            7.197323799269    -2.926429749783     1.388339461005     1.007825032230
         H            7.343997799269    -2.555565749783    -0.331167538995     1.007825032230
         H            7.018401799269    -4.196613749783     0.190893461005     1.007825032230

  Charge       = 0
  Multiplicity = 1
  Basis Set: 6-311+G*
    Blend: 6-311+G*
  Basis Set: (6-311+G* AUX)
    Blend: HEAVY-AUG-CC-PVTZ-JKFIT

    Orbital Energies [Eh]
    ---------------------

    Doubly Occupied:

       1A    -20.516527     2A    -15.602718     3A    -15.599170
       4A    -15.585815     5A    -15.572446     6A    -15.569686
       7A    -15.569625     8A    -15.566832     9A    -11.373140
      10A    -11.360838    11A    -11.336298    12A    -11.333335
      13A    -11.330409    14A    -11.318504    15A    -11.317071
      16A    -11.313286    17A    -11.300872    18A    -11.299805
      19A    -11.299597    20A    -11.291304    21A    -11.289145
      22A    -11.279201    23A    -11.275302    24A    -11.265385
      25A    -11.258704    26A    -11.254321    27A    -11.252011
      28A    -11.250878    29A    -11.248743    30A    -11.245439
      31A    -11.242086    32A    -11.241372    33A    -11.238473
      34A    -11.235914    35A    -11.232917    36A    -11.230345
      37A    -11.223417    38A     -1.382119    39A     -1.344343
      40A     -1.277747    41A     -1.251802    42A     -1.248748
      43A     -1.240099    44A     -1.208700    45A     -1.206283
      46A     -1.155886    47A     -1.138189    48A     -1.115385
      49A     -1.074428    50A     -1.056253    51A     -1.047371
      52A     -1.036179    53A     -1.015953    54A     -1.006483
      55A     -0.994832    56A     -0.976556    57A     -0.947100
      58A     -0.930392    59A     -0.925780    60A     -0.899967
      61A     -0.871930    62A     -0.861972    63A     -0.857134
      64A     -0.841153    65A     -0.828727    66A     -0.826755
      67A     -0.822967    68A     -0.804596    69A     -0.775714
      70A     -0.753591    71A     -0.737652    72A     -0.728100
      73A     -0.721440    74A     -0.700884    75A     -0.695223
      76A     -0.682003    77A     -0.668422    78A     -0.658274
      79A     -0.657487    80A     -0.652205    81A     -0.650411
      82A     -0.642508    83A     -0.636092    84A     -0.627368
      85A     -0.625221    86A     -0.619442    87A     -0.611869
      88A     -0.607717    89A     -0.606028    90A     -0.601908
      91A     -0.596584    92A     -0.594613    93A     -0.593558
      94A     -0.587249    95A     -0.583758    96A     -0.579986
      97A     -0.576975    98A     -0.572770    99A     -0.564061
     100A     -0.560581   101A     -0.547593   102A     -0.544224
     103A     -0.540155   104A     -0.528793   105A     -0.521714
     106A     -0.520057   107A     -0.513321   108A     -0.511728
     109A     -0.507048   110A     -0.500101   111A     -0.494537
     112A     -0.490693   113A     -0.483721   114A     -0.475374
     115A     -0.452803   116A     -0.450646   117A     -0.441908
     118A     -0.435785   119A     -0.424323   120A     -0.422924
     121A     -0.413223   122A     -0.408576   123A     -0.399229
     124A     -0.390408   125A     -0.372079   126A     -0.344942
     127A     -0.337089   128A     -0.333631   129A     -0.324240
     130A     -0.312282   131A     -0.288593

  @DF-RHF Final Energy: -1572.25097132551809

   => Energetics <=

    Nuclear Repulsion Energy =           3606.1942523904590416
    One-Electron Energy =               -9310.6540694259056181
    Two-Electron Energy =                4132.2088457099289371
    Total Energy =                      -1572.2509713255176393

  Dipole Moment: [D]
     X:     0.3462      Y:     6.8708      Z:     1.1278     Total:     6.9714

  Basis Set: (6-311+G* AUX)
    Blend: HEAVY-AUG-CC-PVTZ-RI
	 Reference Energy          =   -1572.2509713255180941 [Eh]
	 Singles Energy            =      -0.0000000000000000 [Eh]
	 Same-Spin Energy          =      -1.4470414161620171 [Eh]
	 Opposite-Spin Energy      =      -3.8948490536459017 [Eh]
	 Correlation Energy        =      -5.3418904698079190 [Eh]
	 Total Energy              =   -1577.5928617953259163 [Eh]

	 ================> DF-SCS-MP2 Energies <==================
	-----------------------------------------------------------
	 SCS Same-Spin Scale       =       0.3333333333333333 [-]
	 SCS Opposite-Spin Scale   =       1.2000000000000000 [-]
	 SCS Same-Spin Energy      =      -0.4823471387206724 [Eh]
	 SCS Opposite-Spin Energy  =      -4.6738188643750815 [Eh]
	 SCS Correlation Energy    =      -5.1561660030957537 [Eh]
	 SCS Total Energy          =   -1577.4071373286137714 [Eh]
	-----------------------------------------------------------

*** Psi4 exiting successfully. Buy a developer a beer!
