                               Psi4 1.3.2 release

  ==> Input File <==

--------------------------------------------------------------------------
molecule {
0 1
 C   -0.225909    4.279985    0.954456
 C   -1.608474    4.051395    0.918410
 C   -2.099020    2.743869    0.735598
 C   -1.117954    1.728571    0.617796
 N    0.206375    1.926442    0.646495
 C    0.636973    3.187022    0.811530
 C   -3.565393    2.393064    0.681998
 C   -4.626387    3.274903    0.945766
 C   -5.910843    2.720281    0.879931
 N   -6.166670    1.447908    0.580834
 C   -5.090504    0.677630    0.322996
 N   -3.830499    1.113410    0.362326
 N   -5.358984   -0.642329   -0.000001
 C   -4.513139   -1.789698   -0.225316
 C   -5.058190   -3.105590   -0.123365
 C   -4.177799   -4.184514   -0.314892
 C   -2.813909   -4.042058   -0.598072
 C   -2.298895   -2.748813   -0.734221
 C   -3.157420   -1.653932   -0.549760
 N   -0.939046   -2.412457   -1.031229
 C    0.210600   -3.168482   -1.053753
 C    1.535074   -2.430207   -1.152855
 C    1.738070   -1.110015   -0.716743
 C    2.976730   -0.487508   -0.886166
 C    4.087935   -1.166410   -1.415022
 C    3.873864   -2.500509   -1.822877
 C    2.633777   -3.128344   -1.680088
 C    5.470343   -0.534630   -1.614764
 N    6.131993    0.440747   -0.728311
 C    6.552971   -0.034095    0.612869
 C    5.629622    0.338201    1.799923
 N    5.331046    1.789214    1.887162
 C    6.361591    2.637408    2.498295
 C    4.779007    2.226723    0.584951
 C    5.672479    1.847773   -0.626056
 O    0.186722   -4.389258   -1.007237
 C   -6.515617   -3.379261    0.207694
 H    0.174817    5.280028    1.091536
 H   -2.279250    4.901160    1.019307
 H   -1.413828    0.688870    0.519895
 H    1.718245    3.313572    0.839182
 H   -4.505804    4.317371    1.213839
 H   -6.802663    3.313206    1.080744
 H   -6.352546   -0.806107    0.061036
 H   -4.560800   -5.200783   -0.231254
 H   -2.163425   -4.899336   -0.719101
 H   -2.766752   -0.657456   -0.670234
 H   -0.786284   -1.423946   -1.168784
 H    0.922492   -0.554674   -0.259702
 H    3.043291    0.562677   -0.630727
 H    4.691735   -3.072587   -2.260614
 H    2.497522   -4.161692   -1.989717
 H    6.180668   -1.372567   -1.675917
 H    5.433704   -0.033668   -2.593824
 H    6.710895   -1.490861    0.590848
 H    7.861897    0.527760    0.871878
 H    6.045740   -0.018566    2.769477
 H    4.295727   -0.372565    1.594021
 H    7.271491    2.649442    1.887753
 H    6.611651    2.266374    3.499024
 H    5.992865    3.664349    2.603243
 H    4.614831    3.560142    0.608303
 H    3.927571    1.861235    0.509369
 H    6.956469    2.685814   -0.479753
 H    5.107018    2.227165   -1.759420
 H   -7.201841   -3.001751   -0.563914
 H   -6.801096   -2.907912    1.152291
 H   -6.730240   -4.445574    0.316215
}
memory 20GB
set_num_threads(6)
psi4_io.set_default_path("/scratch/bdw2292")
set freeze_core True
E, wfn = energy('mp2/6-311++G**',return_wfn=True)
oeprop(wfn,"WIBERG_LOWDIN_INDICES")
clean()
--------------------------------------------------------------------------

    Molecular point group: c1

    Geometry (in Angstrom), charge = 0, multiplicity = 1:

       Center              X                  Y                   Z               Mass
    ------------   -----------------  -----------------  -----------------  -----------------
         C           -0.162565902072     4.384885934023     0.946514604331    12.000000000000
         C           -1.545130902072     4.156295934023     0.910468604331    12.000000000000
         C           -2.035676902072     2.848769934023     0.727656604331    12.000000000000
         C           -1.054610902072     1.833471934023     0.609854604331    12.000000000000
         N            0.269718097928     2.031342934023     0.638553604331    14.003074004430
         C            0.700316097928     3.291922934023     0.803588604331    12.000000000000
         C           -3.502049902072     2.497964934023     0.674056604331    12.000000000000
         C           -4.563043902072     3.379803934023     0.937824604331    12.000000000000
         C           -5.847499902072     2.825181934023     0.871989604331    12.000000000000
         N           -6.103326902072     1.552808934023     0.572892604331    14.003074004430
         C           -5.027160902072     0.782530934023     0.315054604331    12.000000000000
         N           -3.767155902072     1.218310934023     0.354384604331    14.003074004430
         N           -5.295640902072    -0.537428065977    -0.007942395669    14.003074004430
         C           -4.449795902072    -1.684797065977    -0.233257395669    12.000000000000
         C           -4.994846902072    -3.000689065977    -0.131306395669    12.000000000000
         C           -4.114455902072    -4.079613065977    -0.322833395669    12.000000000000
         C           -2.750565902072    -3.937157065977    -0.606013395669    12.000000000000
         C           -2.235551902072    -2.643912065977    -0.742162395669    12.000000000000
         C           -3.094076902072    -1.549031065977    -0.557701395669    12.000000000000
         N           -0.875702902072    -2.307556065977    -1.039170395669    14.003074004430
         C            0.273943097928    -3.063581065977    -1.061694395669    12.000000000000
         C            1.598417097928    -2.325306065977    -1.160796395669    12.000000000000
         C            1.801413097928    -1.005114065977    -0.724684395669    12.000000000000
         C            3.040073097928    -0.382607065977    -0.894107395669    12.000000000000
         C            4.151278097928    -1.061509065977    -1.422963395669    12.000000000000
         C            3.937207097928    -2.395608065977    -1.830818395669    12.000000000000
         C            2.697120097928    -3.023443065977    -1.688029395669    12.000000000000
         C            5.533686097928    -0.429729065977    -1.622705395669    12.000000000000
         N            6.195336097928     0.545647934023    -0.736252395669    14.003074004430
         C            6.616314097928     0.070805934023     0.604927604331    12.000000000000
         C            5.692965097928     0.443101934023     1.791981604331    12.000000000000
         N            5.394389097928     1.894114934023     1.879220604331    14.003074004430
         C            6.424934097928     2.742308934023     2.490353604331    12.000000000000
         C            4.842350097928     2.331623934023     0.577009604331    12.000000000000
         C            5.735822097928     1.952673934023    -0.633997395669    12.000000000000
         O            0.250065097928    -4.284357065977    -1.015178395669    15.994914619570
         C           -6.452273902072    -3.274360065977     0.199752604331    12.000000000000
         H            0.238160097928     5.384928934023     1.083594604331     1.007825032230
         H           -2.215906902072     5.006060934023     1.011365604331     1.007825032230
         H           -1.350484902072     0.793770934023     0.511953604331     1.007825032230
         H            1.781588097928     3.418472934023     0.831240604331     1.007825032230
         H           -4.442460902072     4.422271934023     1.205897604331     1.007825032230
         H           -6.739319902072     3.418106934023     1.072802604331     1.007825032230
         H           -6.289202902072    -0.701206065977     0.053094604331     1.007825032230
         H           -4.497456902072    -5.095882065977    -0.239195395669     1.007825032230
         H           -2.100081902072    -4.794435065977    -0.727042395669     1.007825032230
         H           -2.703408902072    -0.552555065977    -0.678175395669     1.007825032230
         H           -0.722940902072    -1.319045065977    -1.176725395669     1.007825032230
         H            0.985835097928    -0.449773065977    -0.267643395669     1.007825032230
         H            3.106634097928     0.667577934023    -0.638668395669     1.007825032230
         H            4.755078097928    -2.967686065977    -2.268555395669     1.007825032230
         H            2.560865097928    -4.056791065977    -1.997658395669     1.007825032230
         H            6.244011097928    -1.267666065977    -1.683858395669     1.007825032230
         H            5.497047097928     0.071232934023    -2.601765395669     1.007825032230
         H            6.774238097928    -1.385960065977     0.582906604331     1.007825032230
         H            7.925240097928     0.632660934023     0.863936604331     1.007825032230
         H            6.109083097928     0.086334934023     2.761535604331     1.007825032230
         H            4.359070097928    -0.267664065977     1.586079604331     1.007825032230
         H            7.334834097928     2.754342934023     1.879811604331     1.007825032230
         H            6.674994097928     2.371274934023     3.491082604331     1.007825032230
         H            6.056208097928     3.769249934023     2.595301604331     1.007825032230
         H            4.678174097928     3.665042934023     0.600361604331     1.007825032230
         H            3.990914097928     1.966135934023     0.501427604331     1.007825032230
         H            7.019812097928     2.790714934023    -0.487694395669     1.007825032230
         H            5.170361097928     2.332065934023    -1.767361395669     1.007825032230
         H           -7.138497902072    -2.896850065977    -0.571855395669     1.007825032230
         H           -6.737752902072    -2.803011065977     1.144349604331     1.007825032230
         H           -6.666896902072    -4.340673065977     0.308273604331     1.007825032230

  Charge       = 0
  Multiplicity = 1
  Basis Set: 6-311++G**
    Blend: 6-311++G**
  Basis Set: (6-311++G** AUX)
    Blend: AUG-CC-PVTZ-JKFIT

    Orbital Energies [Eh]
    ---------------------

    Doubly Occupied:

       1A    -20.519156     2A    -15.603665     3A    -15.600232
       4A    -15.586882     5A    -15.580319     6A    -15.573549
       7A    -15.568041     8A    -15.560337     9A    -11.374334
      10A    -11.363219    11A    -11.335331    12A    -11.334441
      13A    -11.333594    14A    -11.313866    15A    -11.307007
      16A    -11.301053    17A    -11.301006    18A    -11.300345
      19A    -11.292224    20A    -11.289577    21A    -11.280378
      22A    -11.279682    23A    -11.277276    24A    -11.265657
      25A    -11.260344    26A    -11.253827    27A    -11.252643
      28A    -11.251749    29A    -11.251694    30A    -11.247449
      31A    -11.246928    32A    -11.243320    33A    -11.241774
      34A    -11.239419    35A    -11.233528    36A    -11.230562
      37A    -11.224649    38A     -1.384418    39A     -1.344820
      40A     -1.278356    41A     -1.250680    42A     -1.250019
      43A     -1.240852    44A     -1.209361    45A     -1.206258
      46A     -1.160279    47A     -1.139196    48A     -1.115826
      49A     -1.075000    50A     -1.059177    51A     -1.048163
      52A     -1.037483    53A     -1.021041    54A     -1.009982
      55A     -1.007442    56A     -0.981687    57A     -0.949939
      58A     -0.932642    59A     -0.926380    60A     -0.900605
      61A     -0.872533    62A     -0.866166    63A     -0.857924
      64A     -0.841785    65A     -0.838476    66A     -0.835211
      67A     -0.826071    68A     -0.807445    69A     -0.778281
      70A     -0.754191    71A     -0.739115    72A     -0.731137
      73A     -0.728732    74A     -0.721318    75A     -0.697514
      76A     -0.682302    77A     -0.670705    78A     -0.665231
      79A     -0.656975    80A     -0.651650    81A     -0.650265
      82A     -0.640684    83A     -0.635666    84A     -0.632002
      85A     -0.630786    86A     -0.623636    87A     -0.618601
      88A     -0.611417    89A     -0.606986    90A     -0.603014
      91A     -0.600681    92A     -0.595909    93A     -0.592039
      94A     -0.590025    95A     -0.585290    96A     -0.582959
      97A     -0.579960    98A     -0.575026    99A     -0.564956
     100A     -0.561301   101A     -0.548365   102A     -0.545460
     103A     -0.544271   104A     -0.532011   105A     -0.523704
     106A     -0.522015   107A     -0.513118   108A     -0.508340
     109A     -0.506279   110A     -0.504959   111A     -0.496826
     112A     -0.493474   113A     -0.484279   114A     -0.478101
     115A     -0.451677   116A     -0.450049   117A     -0.442837
     118A     -0.439854   119A     -0.426982   120A     -0.425088
     121A     -0.413924   122A     -0.410900   123A     -0.400183
     124A     -0.383492   125A     -0.373314   126A     -0.346042
     127A     -0.342072   128A     -0.338414   129A     -0.321700
     130A     -0.313603   131A     -0.290007

  @DF-RHF Final Energy: -1572.28202858206032

   => Energetics <=

    Nuclear Repulsion Energy =           3735.6274528426110919
    One-Electron Energy =               -9569.1710416411260667
    Two-Electron Energy =                4261.2615602164551092
    Total Energy =                      -1572.2820285820598656

  Dipole Moment: [D]
     X:    -1.2940      Y:     6.7797      Z:     0.8970     Total:     6.9601

  Basis Set: (6-311++G** AUX)
    Blend: AUG-CC-PVTZ-RI
	 Reference Energy          =   -1572.2820285820603203 [Eh]
	 Singles Energy            =      -0.0000000000000000 [Eh]
	 Same-Spin Energy          =      -1.4705678177573274 [Eh]
	 Opposite-Spin Energy      =      -4.0485832266478168 [Eh]
	 Correlation Energy        =      -5.5191510444051444 [Eh]
	 Total Energy              =   -1577.8011796264654549 [Eh]

	 ================> DF-SCS-MP2 Energies <==================
	-----------------------------------------------------------
	 SCS Same-Spin Scale       =       0.3333333333333333 [-]
	 SCS Opposite-Spin Scale   =       1.2000000000000000 [-]
	 SCS Same-Spin Energy      =      -0.4901892725857758 [Eh]
	 SCS Opposite-Spin Energy  =      -4.8582998719773798 [Eh]
	 SCS Correlation Energy    =      -5.3484891445631559 [Eh]
	 SCS Total Energy          =   -1577.6305177266235660 [Eh]
	-----------------------------------------------------------

*** Psi4 exiting successfully. Buy a developer a beer!
