 Gaussian 09, Revision A.02,
 Gaussian 09:  EM64L-G09RevA.02 11-Jun-2009

 --------------------------------------------------
 #P opt=(,maxcycle=400) wB97XD/6-31G* MaxDisk=100GB
 --------------------------------------------------

 --------------------------------------------------------------
 MOLECULE0 Rotatable Bond Optimization on node37.bme.utexas.edu
 --------------------------------------------------------------
 Symbolic Z-matrix:
 Charge =  0 Multiplicity = 1

 SCF Done:  E(RwB97XD) =  -1581.52615759     A.U. after   16 cycles
 SCF Done:  E(RwB97XD) =  -1581.58760584     A.U. after   13 cycles
 SCF Done:  E(RwB97XD) =  -1581.68321901     A.U. after   14 cycles
 SCF Done:  E(RwB97XD) =  -1581.71821054     A.U. after   14 cycles
 SCF Done:  E(RwB97XD) =  -1581.73172518     A.U. after   17 cycles
 SCF Done:  E(RwB97XD) =  -1581.73004530     A.U. after   17 cycles
 SCF Done:  E(RwB97XD) =  -1581.74427129     A.U. after   14 cycles
 SCF Done:  E(RwB97XD) =  -1581.75445118     A.U. after   14 cycles
 SCF Done:  E(RwB97XD) =  -1581.75888428     A.U. after   17 cycles
 SCF Done:  E(RwB97XD) =  -1581.76040407     A.U. after   14 cycles
 SCF Done:  E(RwB97XD) =  -1581.76319097     A.U. after   13 cycles
 SCF Done:  E(RwB97XD) =  -1581.76319402     A.U. after   12 cycles
 SCF Done:  E(RwB97XD) =  -1581.76318971     A.U. after   12 cycles
 SCF Done:  E(RwB97XD) =  -1581.76320931     A.U. after   11 cycles
 SCF Done:  E(RwB97XD) =  -1581.76321563     A.U. after   11 cycles
 SCF Done:  E(RwB97XD) =  -1581.76321523     A.U. after    8 cycles
 SCF Done:  E(RwB97XD) =  -1581.76321609     A.U. after    8 cycles
 SCF Done:  E(RwB97XD) =  -1581.76321584     A.U. after    7 cycles
 SCF Done:  E(RwB97XD) =  -1581.76321604     A.U. after    7 cycles
 SCF Done:  E(RwB97XD) =  -1581.76321610     A.U. after    6 cycles
 Optimization completed.
    -- Stationary point found.

                         Standard orientation:
 ---------------------------------------------------------------------
 Center     Atomic      Atomic             Coordinates (Angstroms)
 Number     Number       Type             X           Y           Z
 ---------------------------------------------------------------------
      1          6           0       -0.473783    4.275103   -0.771758
      2          6           0        0.870746    4.192446   -0.430465
      3          6           0        1.547176    2.990443   -0.631543
      4          6           0        0.820741    1.926357   -1.182513
      5          7           0       -0.468224    1.990076   -1.511617
      6          6           0       -1.097137    3.150136   -1.300661
      7          6           0        2.969043    2.789313   -0.253861
      8          6           0        3.900013    3.819313   -0.154508
      9          6           0        5.185950    3.446783    0.235410
     10          7           0        5.545332    2.197460    0.496704
     11          6           0        4.571938    1.275011    0.354471
     12          7           0        3.311913    1.523662   -0.002122
     13          7           0        4.960742   -0.010979    0.613009
     14          6           0        4.245022   -1.217088    0.494567
     15          6           0        4.968798   -2.426771    0.479930
     16          6           0        4.248226   -3.609644    0.338686
     17          6           0        2.862489   -3.650938    0.195635
     18          6           0        2.171220   -2.443384    0.217068
     19          6           0        2.859494   -1.243393    0.393472
     20          7           0        0.784708   -2.305416    0.039103
     21          6           0       -0.155318   -3.232631   -0.331202
     22          6           0       -1.474776   -2.601151   -0.675463
     23          6           0       -1.549891   -1.358147   -1.310935
     24          6           0       -2.782218   -0.778777   -1.574523
     25          6           0       -3.965594   -1.409945   -1.191410
     26          6           0       -3.883923   -2.677450   -0.608013
     27          6           0       -2.653817   -3.274453   -0.357932
     28          6           0       -5.302571   -0.704036   -1.348283
     29          7           0       -5.692369    0.226203   -0.299500
     30          6           0       -5.025244    1.522787   -0.247451
     31          6           0       -3.815231    1.577599    0.702958
     32          7           0       -4.112528    1.068752    2.039026
     33          6           0       -4.901175    1.977919    2.851443
     34          6           0       -4.678855   -0.274572    1.940059
     35          6           0       -5.914043   -0.340027    1.026437
     36          8           0        0.036666   -4.436482   -0.364814
     37          6           0        6.471558   -2.442509    0.599852
     38          1           0       -1.033198    5.191774   -0.619061
     39          1           0        1.375813    5.045563    0.013353
     40          1           0        1.324869    0.981013   -1.366474
     41          1           0       -2.152079    3.176960   -1.565089
     42          1           0        3.661024    4.851111   -0.380373
     43          1           0        5.967485    4.196953    0.338330
     44          1           0        5.941974   -0.077050    0.838905
     45          1           0        4.796463   -4.548325    0.325731
     46          1           0        2.333565   -4.585026    0.064933
     47          1           0        2.314438   -0.312016    0.418588
     48          1           0        0.446144   -1.358987    0.130406
     49          1           0       -0.653427   -0.833175   -1.627829
     50          1           0       -2.810131    0.190674   -2.065434
     51          1           0       -4.798646   -3.197305   -0.331660
     52          1           0       -2.590134   -4.257028    0.098951
     53          1           0       -5.308349   -0.148780   -2.294061
     54          1           0       -6.095022   -1.459763   -1.422626
     55          1           0       -4.723552    1.804146   -1.263510
     56          1           0       -5.766465    2.268038    0.078592
     57          1           0       -3.457819    2.611463    0.792513
     58          1           0       -2.990473    0.982333    0.295690
     59          1           0       -5.911266    2.205617    2.467525
     60          1           0       -4.363371    2.927247    2.951578
     61          1           0       -5.016822    1.550997    3.853652
     62          1           0       -4.937345   -0.623139    2.947355
     63          1           0       -3.897109   -0.938175    1.552458
     64          1           0       -6.742635    0.208551    1.498566
     65          1           0       -6.247978   -1.377763    0.915525
     66          1           0        6.816858   -2.030714    1.558072
     67          1           0        6.951972   -1.866268   -0.201561
     68          1           0        6.851842   -3.465149    0.536443
 ---------------------------------------------------------------------

 The electronic state is 1-A.
 Alpha  occ. eigenvalues --  -19.23411 -14.49282 -14.48320 -14.46751 -14.46096
 Alpha  occ. eigenvalues --  -14.45764 -14.43616 -14.43135 -10.41778 -10.40081
 Alpha  occ. eigenvalues --  -10.37615 -10.36338 -10.35325 -10.35084 -10.34623
 Alpha  occ. eigenvalues --  -10.34135 -10.34016 -10.33623 -10.32863 -10.32367
 Alpha  occ. eigenvalues --  -10.31860 -10.31492 -10.31178 -10.30936 -10.30708
 Alpha  occ. eigenvalues --  -10.30688 -10.30676 -10.30586 -10.30533 -10.30403
 Alpha  occ. eigenvalues --  -10.30376 -10.30220 -10.30020 -10.29974 -10.29575
 Alpha  occ. eigenvalues --  -10.28739 -10.28405  -1.13443  -1.12295  -1.06322
 Alpha  occ. eigenvalues --   -1.04565  -1.03829  -1.03634  -1.00716  -0.99558
 Alpha  occ. eigenvalues --   -0.96086  -0.94671  -0.93098  -0.89778  -0.88124
 Alpha  occ. eigenvalues --   -0.87389  -0.86228  -0.85399  -0.84542  -0.83783
 Alpha  occ. eigenvalues --   -0.81888  -0.79581  -0.78270  -0.77798  -0.76320
 Alpha  occ. eigenvalues --   -0.73881  -0.73301  -0.73025  -0.72621  -0.70870
 Alpha  occ. eigenvalues --   -0.70314  -0.69614  -0.68039  -0.66413  -0.65150
 Alpha  occ. eigenvalues --   -0.63656  -0.63409  -0.62228  -0.61762  -0.60211
 Alpha  occ. eigenvalues --   -0.58848  -0.58045  -0.57570  -0.56611  -0.56101
 Alpha  occ. eigenvalues --   -0.55817  -0.55236  -0.55134  -0.54965  -0.54255
 Alpha  occ. eigenvalues --   -0.53867  -0.53239  -0.53154  -0.52612  -0.52174
 Alpha  occ. eigenvalues --   -0.51912  -0.51510  -0.51371  -0.50999  -0.50575
 Alpha  occ. eigenvalues --   -0.50365  -0.50116  -0.49975  -0.49497  -0.48335
 Alpha  occ. eigenvalues --   -0.47217  -0.46906  -0.46619  -0.46319  -0.46211
 Alpha  occ. eigenvalues --   -0.45762  -0.45236  -0.44797  -0.44045  -0.43932
 Alpha  occ. eigenvalues --   -0.43328  -0.43017  -0.42141  -0.41766  -0.41439
 Alpha  occ. eigenvalues --   -0.40964  -0.40776  -0.39912  -0.38187  -0.37592
 Alpha  occ. eigenvalues --   -0.35821  -0.35293  -0.34001  -0.33446  -0.33373
 Alpha  occ. eigenvalues --   -0.32818  -0.31904  -0.30772  -0.29115  -0.27079
 Alpha  occ. eigenvalues --   -0.24996
 Alpha virt. eigenvalues --   -0.00292   0.02872   0.03586   0.04480   0.06433
 Alpha virt. eigenvalues --    0.07258   0.08204   0.10372   0.13887   0.14815
 Alpha virt. eigenvalues --    0.15728   0.16386   0.17252   0.17441   0.18251

 Mulliken atomic charges:
              1
     1  C   -0.197840
     2  C   -0.154402
     3  C    0.035515
     4  C    0.009581
     5  N   -0.437516
     6  C    0.035725
     7  C    0.295160
     8  C   -0.254768
     9  C    0.049019
    10  N   -0.493040
    11  C    0.714374
    12  N   -0.568406
    13  N   -0.802066
    14  C    0.291481
    15  C    0.119856
    16  C   -0.240381
    17  C   -0.191300
    18  C    0.358157
    19  C   -0.269700
    20  N   -0.757971
    21  C    0.585738
    22  C    0.015197
    23  C   -0.205366
    24  C   -0.217896
    25  C    0.155969
    26  C   -0.223077
    27  C   -0.178386
    28  C   -0.263562
    29  N   -0.382218
    30  C   -0.183896
    31  C   -0.181772
    32  N   -0.385712
    33  C   -0.349276
    34  C   -0.182633
    35  C   -0.186519
    36  O   -0.513285
    37  C   -0.607378
    38  H    0.186141
    39  H    0.186726
    40  H    0.198117
    41  H    0.179047
    42  H    0.180745
    43  H    0.189491
    44  H    0.369213
    45  H    0.160819
    46  H    0.213082
    47  H    0.199374
    48  H    0.361560
    49  H    0.185464
    50  H    0.172058
    51  H    0.163618
    52  H    0.195609
    53  H    0.170280
    54  H    0.168918
    55  H    0.148151
    56  H    0.158353
    57  H    0.141657
    58  H    0.174888
    59  H    0.135268
    60  H    0.164119
    61  H    0.167874
    62  H    0.153489
    63  H    0.172921
    64  H    0.159409
    65  H    0.154995
    66  H    0.178039
    67  H    0.182747
    68  H    0.190421
 Sum of Mulliken atomic charges =   0.00000

 Dipole moment (field-independent basis, Debye):
    X=              0.5801    Y=              6.5722    Z=              0.4337  Tot=              6.6120
 Quadrupole moment (field-independent basis, Debye-Ang):
   XX=           -193.2967   YY=           -202.5052   ZZ=           -220.4853
   XY=              3.1071   XZ=             -1.2801   YZ=             -5.2231

 Normal termination of Gaussian 09 at Thu Apr  9 01:06:57 2020.
