                               Psi4 1.3.2 release

  ==> Input File <==

--------------------------------------------------------------------------
molecule {
0 1
 C    1.239201    4.891743   -0.896047
 C    2.547665    4.568551   -0.511036
 C    2.928360    3.218643   -0.375835
 C    1.924013    2.264772   -0.675330
 N    0.670186    2.551208   -1.048299
 C    0.341438    3.848169   -1.148792
 C    4.309037    2.777608    0.044912
 C    5.404086    3.623759    0.281446
 C    6.596730    2.985335    0.640342
 N    6.736086    1.669211    0.774308
 C    5.627073    0.934614    0.546829
 N    4.444303    1.446133    0.195027
 N    5.771607   -0.435752    0.703260
 C    4.897146   -1.551122    0.436134
 C    5.452575   -2.852070    0.243821
 C    4.555722   -3.896603   -0.038193
 C    3.169406   -3.730398   -0.138764
 C    2.638042   -2.454585    0.075956
 C    3.507966   -1.390721    0.363843
 N    1.252607   -2.097796    0.011995
 C    0.151351   -2.803720   -0.413415
 C   -1.163349   -2.057806   -0.556883
 C   -1.254819   -0.682562   -0.834309
 C   -2.500146   -0.057600   -0.926938
 C   -3.698636   -0.778123   -0.764968
 C   -3.594505   -2.162065   -0.526959
 C   -2.352883   -2.794774   -0.427347
 C   -5.060987   -0.089243   -0.871343
 N   -6.076892   -0.484489    0.124042
 C   -7.458973   -0.770203   -0.316755
 C   -8.371444    0.483005   -0.300792
 N   -8.382468    1.228919    0.982389
 C   -9.305242    0.732120    2.011491
 C   -6.990015    1.488309    1.422987
 C   -6.082710    0.232624    1.414071
 O    0.205380   -4.000022   -0.656053
 C    6.942395   -3.142565    0.300615
 H    0.922211    5.925462   -0.997183
 H    3.240926    5.381414   -0.309415
 H    2.156987    1.206340   -0.633182
 H   -0.683524    4.056832   -1.451414
 H    5.372140    4.701608    0.179979
 H    7.496731    3.570122    0.828515
 H    6.732601   -0.651463    0.922765
 H    4.944447   -4.900356   -0.205168
 H    2.513950   -4.560251   -0.372310
 H    3.108186   -0.403451    0.532263
 H    1.061987   -1.140844    0.272992
 H   -0.350640   -0.094656   -0.976344
 H   -2.525885    1.012071   -1.134985
 H   -4.496450   -2.762074   -0.410463
 H   -2.285919   -3.863223   -0.237760
 H   -4.903164    0.998041   -0.857436
 H   -5.497620   -0.319463   -1.854245
 H   -7.456304   -1.267406   -1.272925
 H   -8.082425   -1.767851    0.698681
 H   -9.484768    0.201680   -0.600570
 H   -7.805061    1.442288   -1.383189
 H   -9.007418   -0.264833    2.356895
 H  -10.324296    0.677893    1.611017
 H   -9.317459    1.414375    2.869464
 H   -6.995347    1.975734    2.370089
 H   -6.378678    2.462245    0.404070
 H   -6.579925   -0.692137    2.462318
 H   -4.744315    0.615845    1.761649
 H    7.347636   -2.960391    1.305911
 H    7.503557   -2.510184   -0.401919
 H    7.186110   -4.183506    0.046895
}
memory 20GB
set_num_threads(6)
psi4_io.set_default_path("/scratch/bdw2292")
set freeze_core True
E, wfn = energy('mp2/6-311++G**',return_wfn=True)
oeprop(wfn,"WIBERG_LOWDIN_INDICES")
clean()
--------------------------------------------------------------------------

    Molecular point group: c1

    Geometry (in Angstrom), charge = 0, multiplicity = 1:

       Center              X                  Y                   Z               Mass
    ------------   -----------------  -----------------  -----------------  -----------------
         C            1.096893457559     4.884317344640    -0.888308821366    12.000000000000
         C            2.405357457559     4.561125344640    -0.503297821366    12.000000000000
         C            2.786052457559     3.211217344640    -0.368096821366    12.000000000000
         C            1.781705457559     2.257346344640    -0.667591821366    12.000000000000
         N            0.527878457559     2.543782344640    -1.040560821366    14.003074004430
         C            0.199130457559     3.840743344640    -1.141053821366    12.000000000000
         C            4.166729457559     2.770182344640     0.052650178634    12.000000000000
         C            5.261778457559     3.616333344640     0.289184178634    12.000000000000
         C            6.454422457559     2.977909344640     0.648080178634    12.000000000000
         N            6.593778457559     1.661785344640     0.782046178634    14.003074004430
         C            5.484765457559     0.927188344640     0.554567178634    12.000000000000
         N            4.301995457559     1.438707344640     0.202765178634    14.003074004430
         N            5.629299457559    -0.443177655360     0.710998178634    14.003074004430
         C            4.754838457559    -1.558547655360     0.443872178634    12.000000000000
         C            5.310267457559    -2.859495655360     0.251559178634    12.000000000000
         C            4.413414457559    -3.904028655360    -0.030454821366    12.000000000000
         C            3.027098457559    -3.737823655360    -0.131025821366    12.000000000000
         C            2.495734457559    -2.462010655360     0.083694178634    12.000000000000
         C            3.365658457559    -1.398146655360     0.371581178634    12.000000000000
         N            1.110299457559    -2.105221655360     0.019733178634    14.003074004430
         C            0.009043457559    -2.811145655360    -0.405676821366    12.000000000000
         C           -1.305656542441    -2.065231655360    -0.549144821366    12.000000000000
         C           -1.397126542441    -0.689987655360    -0.826570821366    12.000000000000
         C           -2.642453542441    -0.065025655360    -0.919199821366    12.000000000000
         C           -3.840943542441    -0.785548655360    -0.757229821366    12.000000000000
         C           -3.736812542441    -2.169490655360    -0.519220821366    12.000000000000
         C           -2.495190542441    -2.802199655360    -0.419608821366    12.000000000000
         C           -5.203294542441    -0.096668655360    -0.863604821366    12.000000000000
         N           -6.219199542441    -0.491914655360     0.131780178634    14.003074004430
         C           -7.601280542441    -0.777628655360    -0.309016821366    12.000000000000
         C           -8.513751542441     0.475579344640    -0.293053821366    12.000000000000
         N           -8.524775542441     1.221493344640     0.990127178634    14.003074004430
         C           -9.447549542441     0.724694344640     2.019229178634    12.000000000000
         C           -7.132322542441     1.480883344640     1.430725178634    12.000000000000
         C           -6.225017542441     0.225198344640     1.421809178634    12.000000000000
         O            0.063072457559    -4.007447655360    -0.648314821366    15.994914619570
         C            6.800087457559    -3.149990655360     0.308353178634    12.000000000000
         H            0.779903457559     5.918036344640    -0.989444821366     1.007825032230
         H            3.098618457559     5.373988344640    -0.301676821366     1.007825032230
         H            2.014679457559     1.198914344640    -0.625443821366     1.007825032230
         H           -0.825831542441     4.049406344640    -1.443675821366     1.007825032230
         H            5.229832457559     4.694182344640     0.187717178634     1.007825032230
         H            7.354423457559     3.562696344640     0.836253178634     1.007825032230
         H            6.590293457559    -0.658888655360     0.930503178634     1.007825032230
         H            4.802139457559    -4.907781655360    -0.197429821366     1.007825032230
         H            2.371642457559    -4.567676655360    -0.364571821366     1.007825032230
         H            2.965878457559    -0.410876655360     0.540001178634     1.007825032230
         H            0.919679457559    -1.148269655360     0.280730178634     1.007825032230
         H           -0.492947542441    -0.102081655360    -0.968605821366     1.007825032230
         H           -2.668192542441     1.004645344640    -1.127246821366     1.007825032230
         H           -4.638757542441    -2.769499655360    -0.402724821366     1.007825032230
         H           -2.428226542441    -3.870648655360    -0.230021821366     1.007825032230
         H           -5.045471542441     0.990615344640    -0.849697821366     1.007825032230
         H           -5.639927542441    -0.326888655360    -1.846506821366     1.007825032230
         H           -7.598611542441    -1.274831655360    -1.265186821366     1.007825032230
         H           -8.224732542441    -1.775276655360     0.706419178634     1.007825032230
         H           -9.627075542441     0.194254344640    -0.592831821366     1.007825032230
         H           -7.947368542441     1.434862344640    -1.375450821366     1.007825032230
         H           -9.149725542441    -0.272258655360     2.364633178634     1.007825032230
         H          -10.466603542441     0.670467344640     1.618755178634     1.007825032230
         H           -9.459766542441     1.406949344640     2.877202178634     1.007825032230
         H           -7.137654542441     1.968308344640     2.377827178634     1.007825032230
         H           -6.520985542441     2.454819344640     0.411808178634     1.007825032230
         H           -6.722232542441    -0.699562655360     2.470056178634     1.007825032230
         H           -4.886622542441     0.608419344640     1.769387178634     1.007825032230
         H            7.205328457559    -2.967816655360     1.313649178634     1.007825032230
         H            7.361249457559    -2.517609655360    -0.394180821366     1.007825032230
         H            7.043802457559    -4.190931655360     0.054633178634     1.007825032230

  Charge       = 0
  Multiplicity = 1
  Basis Set: 6-311++G**
    Blend: 6-311++G**
  Basis Set: (6-311++G** AUX)
    Blend: AUG-CC-PVTZ-JKFIT

    Orbital Energies [Eh]
    ---------------------

    Doubly Occupied:

       1A    -20.516297     2A    -15.602324     3A    -15.598446
       4A    -15.586373     5A    -15.573399     6A    -15.570557
       7A    -15.569287     8A    -15.567918     9A    -11.374298
      10A    -11.360155    11A    -11.334067    12A    -11.333536
      13A    -11.319460    14A    -11.313958    15A    -11.313413
      16A    -11.305719    17A    -11.300510    18A    -11.299627
      19A    -11.299266    20A    -11.290952    21A    -11.288584
      22A    -11.279484    23A    -11.277779    24A    -11.264779
      25A    -11.259069    26A    -11.254799    27A    -11.251655
      28A    -11.250767    29A    -11.247985    30A    -11.245472
      31A    -11.242201    32A    -11.240799    33A    -11.238023
      34A    -11.236134    35A    -11.234073    36A    -11.229606
      37A    -11.222961    38A     -1.382291    39A     -1.343598
      40A     -1.277746    41A     -1.251946    42A     -1.248331
      43A     -1.239354    44A     -1.208866    45A     -1.207042
      46A     -1.155757    47A     -1.137705    48A     -1.114880
      49A     -1.074274    50A     -1.056313    51A     -1.047446
      52A     -1.036009    53A     -1.015830    54A     -1.006238
      55A     -1.004710    56A     -0.977340    57A     -0.946452
      58A     -0.929940    59A     -0.925580    60A     -0.899736
      61A     -0.871657    62A     -0.865045    63A     -0.857090
      64A     -0.850911    65A     -0.838802    66A     -0.827577
      67A     -0.822148    68A     -0.804635    69A     -0.775167
      70A     -0.752504    71A     -0.737276    72A     -0.728061
      73A     -0.720590    74A     -0.703651    75A     -0.695845
      76A     -0.681700    77A     -0.671040    78A     -0.667117
      79A     -0.658359    80A     -0.652714    81A     -0.650204
      82A     -0.646641    83A     -0.636519    84A     -0.628873
      85A     -0.624315    86A     -0.618952    87A     -0.616097
      88A     -0.610415    89A     -0.605345    90A     -0.603966
      91A     -0.600636    92A     -0.595302    93A     -0.593696
      94A     -0.589334    95A     -0.586339    96A     -0.581752
      97A     -0.579271    98A     -0.573748    99A     -0.563903
     100A     -0.560569   101A     -0.546356   102A     -0.543415
     103A     -0.540136   104A     -0.536291   105A     -0.523020
     106A     -0.520972   107A     -0.512183   108A     -0.507437
     109A     -0.504254   110A     -0.494483   111A     -0.493123
     112A     -0.489420   113A     -0.483622   114A     -0.476001
     115A     -0.471073   116A     -0.451109   117A     -0.442086
     118A     -0.428359   119A     -0.424251   120A     -0.422524
     121A     -0.413738   122A     -0.399371   123A     -0.389765
     124A     -0.387885   125A     -0.372328   126A     -0.345175
     127A     -0.337312   128A     -0.333931   129A     -0.321525
     130A     -0.312576   131A     -0.288837

  @DF-RHF Final Energy: -1572.29643810800894

   => Energetics <=

    Nuclear Repulsion Energy =           3607.9862267196754146
    One-Electron Energy =               -9314.2824696413445054
    Two-Electron Energy =                4133.9998048136603757
    Total Energy =                      -1572.2964381080091698

  Dipole Moment: [D]
     X:     0.4566      Y:     6.8191      Z:     0.8038     Total:     6.8815

  Basis Set: (6-311++G** AUX)
    Blend: AUG-CC-PVTZ-RI
	 Reference Energy          =   -1572.2964381080089424 [Eh]
	 Singles Energy            =      -0.0000000000000000 [Eh]
	 Same-Spin Energy          =      -1.4676615307056511 [Eh]
	 Opposite-Spin Energy      =      -4.0462217330732919 [Eh]
	 Correlation Energy        =      -5.5138832637789434 [Eh]
	 Total Energy              =   -1577.8103213717879498 [Eh]

	 ================> DF-SCS-MP2 Energies <==================
	-----------------------------------------------------------
	 SCS Same-Spin Scale       =       0.3333333333333333 [-]
	 SCS Opposite-Spin Scale   =       1.2000000000000000 [-]
	 SCS Same-Spin Energy      =      -0.4892205102352170 [Eh]
	 SCS Opposite-Spin Energy  =      -4.8554660796879503 [Eh]
	 SCS Correlation Energy    =      -5.3446865899231675 [Eh]
	 SCS Total Energy          =   -1577.6411246979321277 [Eh]
	-----------------------------------------------------------

*** Psi4 exiting successfully. Buy a developer a beer!
