                               Psi4 1.3.2 release

  ==> Input File <==

--------------------------------------------------------------------------
molecule {
0 1
 C    7.781926    2.184004   -0.053229
 C    7.408559    0.866644    0.244395
 C    6.071185    0.454089    0.072469
 C    5.181457    1.442773   -0.414477
 N    5.521840    2.703701   -0.708735
 C    6.800886    3.061744   -0.525931
 C    5.590110   -0.945938    0.364906
 C    6.410336   -2.000664    0.799791
 C    5.772812   -3.230159    0.989733
 N    4.475497   -3.439688    0.793492
 C    3.760519   -2.367702    0.390155
 N    4.269916   -1.151468    0.175311
 N    2.410617   -2.616661    0.203439
 C    1.288929   -1.825847   -0.229972
 C    0.076018   -2.494624   -0.582880
 C   -1.007518   -1.694888   -0.978399
 C   -0.965233   -0.298662   -1.026881
 C    0.224397    0.343242   -0.660852
 C    1.328684   -0.425245   -0.261222
 N    0.412928    1.753866   -0.632915
 C   -0.375244    2.793505   -0.194612
 C   -1.711143    2.471091    0.439241
 C   -1.874708    1.452771    1.392949
 C   -3.143639    1.140124    1.881031
 C   -4.289433    1.811691    1.417730
 C   -4.103548    2.870677    0.508037
 C   -2.832138    3.218271    0.045266
 C   -5.686899    1.355559    1.838220
 N   -6.290105    0.246417    1.073867
 C   -5.803379   -1.133872    1.300373
 C   -4.687123   -1.584424    0.321797
 N   -5.027112   -1.416336   -1.110966
 C   -5.831083   -2.477521   -1.726914
 C   -5.496630   -0.026120   -1.330485
 C   -6.608505    0.451251   -0.358044
 O   -0.030876    3.957263   -0.303103
 C   -0.092755   -4.004562   -0.563360
 H    8.805891    2.522578    0.074850
 H    8.175874    0.190072    0.612240
 H    4.139659    1.197697   -0.589076
 H    7.045500    4.093597   -0.772484
 H    7.475655   -1.911909    0.973144
 H    6.341619   -4.099868    1.317676
 H    2.231214   -3.595589    0.369444
 H   -1.948337   -2.166481   -1.261440
 H   -1.837386    0.263831   -1.337839
 H    2.237625    0.071712    0.043591
 H    1.228649    2.084073   -1.128842
 H   -1.007613    0.894826    1.736396
 H   -3.241832    0.316988    2.588440
 H   -4.965370    3.417859    0.126461
 H   -2.697550    4.017411   -0.679492
 H   -5.667073    1.052278    2.894821
 H   -6.375415    2.210303    1.773334
 H   -5.545607   -1.282488    2.316039
 H   -7.025386   -2.097577    1.006405
 H   -4.443146   -3.052227    0.585580
 H   -3.733817   -1.045045    0.512557
 H   -6.832803   -2.520041   -1.284867
 H   -5.343413   -3.449200   -1.589547
 H   -5.928126   -2.301265   -2.804247
 H   -5.991529    0.091458   -2.668671
 H   -4.415258    0.793294   -1.205137
 H   -7.858583   -0.459839   -0.681494
 H   -6.907622    1.439817   -0.536929
 H    0.026569   -4.408950    0.451810
 H    0.649505   -4.499104   -1.205869
 H   -1.080252   -4.331142   -0.918154
}
memory 20GB
set_num_threads(6)
psi4_io.set_default_path("/scratch/bdw2292")
set freeze_core True
E, wfn = energy('mp2/6-311++G**',return_wfn=True)
oeprop(wfn,"WIBERG_LOWDIN_INDICES")
clean()
--------------------------------------------------------------------------

    Molecular point group: c1

    Geometry (in Angstrom), charge = 0, multiplicity = 1:

       Center              X                  Y                   Z               Mass
    ------------   -----------------  -----------------  -----------------  -----------------
         C            7.632390723601     2.166577806913    -0.110308250218    12.000000000000
         C            7.259023723601     0.849217806913     0.187315749782    12.000000000000
         C            5.921649723601     0.436662806913     0.015389749782    12.000000000000
         C            5.031921723601     1.425346806913    -0.471556250218    12.000000000000
         N            5.372304723601     2.686274806913    -0.765814250218    14.003074004430
         C            6.651350723601     3.044317806913    -0.583010250218    12.000000000000
         C            5.440574723601    -0.963364193087     0.307826749782    12.000000000000
         C            6.260800723601    -2.018090193087     0.742711749782    12.000000000000
         C            5.623276723601    -3.247585193087     0.932653749782    12.000000000000
         N            4.325961723601    -3.457114193087     0.736412749782    14.003074004430
         C            3.610983723601    -2.385128193087     0.333075749782    12.000000000000
         N            4.120380723601    -1.168894193087     0.118231749782    14.003074004430
         N            2.261081723601    -2.634087193087     0.146359749782    14.003074004430
         C            1.139393723601    -1.843273193087    -0.287051250218    12.000000000000
         C           -0.073517276399    -2.512050193087    -0.639959250218    12.000000000000
         C           -1.157053276399    -1.712314193087    -1.035478250218    12.000000000000
         C           -1.114768276399    -0.316088193087    -1.083960250218    12.000000000000
         C            0.074861723601     0.325815806913    -0.717931250218    12.000000000000
         C            1.179148723601    -0.442671193087    -0.318301250218    12.000000000000
         N            0.263392723601     1.736439806913    -0.689994250218    14.003074004430
         C           -0.524779276399     2.776078806913    -0.251691250218    12.000000000000
         C           -1.860678276399     2.453664806913     0.382161749782    12.000000000000
         C           -2.024243276399     1.435344806913     1.335869749782    12.000000000000
         C           -3.293174276399     1.122697806913     1.823951749782    12.000000000000
         C           -4.438968276399     1.794264806913     1.360650749782    12.000000000000
         C           -4.253083276399     2.853250806913     0.450957749782    12.000000000000
         C           -2.981673276399     3.200844806913    -0.011813250218    12.000000000000
         C           -5.836434276399     1.338132806913     1.781140749782    12.000000000000
         N           -6.439640276399     0.228990806913     1.016787749782    14.003074004430
         C           -5.952914276399    -1.151298193087     1.243293749782    12.000000000000
         C           -4.836658276399    -1.601850193087     0.264717749782    12.000000000000
         N           -5.176647276399    -1.433762193087    -1.168045250218    14.003074004430
         C           -5.980618276399    -2.494947193087    -1.783993250218    12.000000000000
         C           -5.646165276399    -0.043546193087    -1.387564250218    12.000000000000
         C           -6.758040276399     0.433824806913    -0.415123250218    12.000000000000
         O           -0.180411276399     3.939836806913    -0.360182250218    15.994914619570
         C           -0.242290276399    -4.021988193087    -0.620439250218    12.000000000000
         H            8.656355723601     2.505151806913     0.017770749782     1.007825032230
         H            8.026338723601     0.172645806913     0.555160749782     1.007825032230
         H            3.990123723601     1.180270806913    -0.646155250218     1.007825032230
         H            6.895964723601     4.076170806913    -0.829563250218     1.007825032230
         H            7.326119723601    -1.929335193087     0.916064749782     1.007825032230
         H            6.192083723601    -4.117294193087     1.260596749782     1.007825032230
         H            2.081678723601    -3.613015193087     0.312364749782     1.007825032230
         H           -2.097872276399    -2.183907193087    -1.318519250218     1.007825032230
         H           -1.986921276399     0.246404806913    -1.394918250218     1.007825032230
         H            2.088089723601     0.054285806913    -0.013488250218     1.007825032230
         H            1.079113723601     2.066646806913    -1.185921250218     1.007825032230
         H           -1.157148276399     0.877399806913     1.679316749782     1.007825032230
         H           -3.391367276399     0.299561806913     2.531360749782     1.007825032230
         H           -5.114905276399     3.400432806913     0.069381749782     1.007825032230
         H           -2.847085276399     3.999984806913    -0.736571250218     1.007825032230
         H           -5.816608276399     1.034851806913     2.837741749782     1.007825032230
         H           -6.524950276399     2.192876806913     1.716254749782     1.007825032230
         H           -5.695142276399    -1.299914193087     2.258959749782     1.007825032230
         H           -7.174921276399    -2.115003193087     0.949325749782     1.007825032230
         H           -4.592681276399    -3.069653193087     0.528500749782     1.007825032230
         H           -3.883352276399    -1.062471193087     0.455477749782     1.007825032230
         H           -6.982338276399    -2.537467193087    -1.341946250218     1.007825032230
         H           -5.492948276399    -3.466626193087    -1.646626250218     1.007825032230
         H           -6.077661276399    -2.318691193087    -2.861326250218     1.007825032230
         H           -6.141064276399     0.074031806913    -2.725750250218     1.007825032230
         H           -4.564793276399     0.775867806913    -1.262216250218     1.007825032230
         H           -8.008118276399    -0.477265193087    -0.738573250218     1.007825032230
         H           -7.057157276399     1.422390806913    -0.594008250218     1.007825032230
         H           -0.122966276399    -4.426376193087     0.394730749782     1.007825032230
         H            0.499969723601    -4.516530193087    -1.262948250218     1.007825032230
         H           -1.229787276399    -4.348568193087    -0.975233250218     1.007825032230

  Charge       = 0
  Multiplicity = 1
  Basis Set: 6-311++G**
    Blend: 6-311++G**
  Basis Set: (6-311++G** AUX)
    Blend: AUG-CC-PVTZ-JKFIT

    Orbital Energies [Eh]
    ---------------------

    Doubly Occupied:

       1A    -20.523009     2A    -15.605061     3A    -15.595428
       4A    -15.576164     5A    -15.575940     6A    -15.572456
       7A    -15.568941     8A    -15.561613     9A    -11.374841
      10A    -11.364936    11A    -11.332218    12A    -11.323195
      13A    -11.311920    14A    -11.308073    15A    -11.308032
      16A    -11.306649    17A    -11.306124    18A    -11.293558
      19A    -11.292130    20A    -11.291943    21A    -11.284597
      22A    -11.282264    23A    -11.273100    24A    -11.260306
      25A    -11.257649    26A    -11.257488    27A    -11.255434
      28A    -11.255346    29A    -11.253785    30A    -11.249667
      31A    -11.249587    32A    -11.249422    33A    -11.246100
      34A    -11.244148    35A    -11.240708    36A    -11.237120
      37A    -11.236623    38A     -1.388820    39A     -1.344003
      40A     -1.269217    41A     -1.253110    42A     -1.251845
      43A     -1.242652    44A     -1.207865    45A     -1.205493
      46A     -1.165103    47A     -1.143847    48A     -1.109857
      49A     -1.071619    50A     -1.060333    51A     -1.045632
      52A     -1.041967    53A     -1.028789    54A     -1.013053
      55A     -1.005785    56A     -0.982750    57A     -0.948208
      58A     -0.935261    59A     -0.921979    60A     -0.900152
      61A     -0.873308    62A     -0.866541    63A     -0.853607
      64A     -0.847060    65A     -0.842869    66A     -0.835911
      67A     -0.824478    68A     -0.817696    69A     -0.781984
      70A     -0.750460    71A     -0.749268    72A     -0.722268
      73A     -0.721431    74A     -0.709677    75A     -0.699845
      76A     -0.685103    77A     -0.679762    78A     -0.665758
      79A     -0.663146    80A     -0.658700    81A     -0.654568
      82A     -0.651075    83A     -0.644684    84A     -0.633710
      85A     -0.628775    86A     -0.620434    87A     -0.618237
      88A     -0.616462    89A     -0.606664    90A     -0.602896
      91A     -0.599421    92A     -0.595999    93A     -0.592247
      94A     -0.588619    95A     -0.587063    96A     -0.582966
      97A     -0.581566    98A     -0.572153    99A     -0.561645
     100A     -0.554231   101A     -0.553759   102A     -0.551476
     103A     -0.537294   104A     -0.535649   105A     -0.528889
     106A     -0.526939   107A     -0.519913   108A     -0.513146
     109A     -0.511721   110A     -0.506728   111A     -0.503817
     112A     -0.500078   113A     -0.486472   114A     -0.479131
     115A     -0.448757   116A     -0.439694   117A     -0.433477
     118A     -0.432784   119A     -0.426554   120A     -0.417358
     121A     -0.411712   122A     -0.401131   123A     -0.394047
     124A     -0.387212   125A     -0.373420   126A     -0.349713
     127A     -0.346917   128A     -0.340730   129A     -0.325263
     130A     -0.317171   131A     -0.295080

  @DF-RHF Final Energy: -1572.30129415361625

   => Energetics <=

    Nuclear Repulsion Energy =           3778.6079511319676385
    One-Electron Energy =               -9655.0160171427523892
    Two-Electron Energy =                4304.1067718571684964
    Total Energy =                      -1572.3012941536162543

  Dipole Moment: [D]
     X:     2.8877      Y:    -4.1519      Z:     1.2924     Total:     5.2199

  Basis Set: (6-311++G** AUX)
    Blend: AUG-CC-PVTZ-RI
	 Reference Energy          =   -1572.3012941536162543 [Eh]
	 Singles Energy            =      -0.0000000000000000 [Eh]
	 Same-Spin Energy          =      -1.4749355863194973 [Eh]
	 Opposite-Spin Energy      =      -4.0543864139744690 [Eh]
	 Correlation Energy        =      -5.5293220002939663 [Eh]
	 Total Energy              =   -1577.8306161539101140 [Eh]

	 ================> DF-SCS-MP2 Energies <==================
	-----------------------------------------------------------
	 SCS Same-Spin Scale       =       0.3333333333333333 [-]
	 SCS Opposite-Spin Scale   =       1.2000000000000000 [-]
	 SCS Same-Spin Energy      =      -0.4916451954398324 [Eh]
	 SCS Opposite-Spin Energy  =      -4.8652636967693628 [Eh]
	 SCS Correlation Energy    =      -5.3569088922091952 [Eh]
	 SCS Total Energy          =   -1577.6582030458255304 [Eh]
	-----------------------------------------------------------

*** Psi4 exiting successfully. Buy a developer a beer!
