                               Psi4 1.3.2 release

  ==> Input File <==

--------------------------------------------------------------------------
molecule {
0 1
 C   -0.890314    4.808304    0.234919
 C   -2.232624    4.408325    0.292733
 C   -2.560619    3.038057    0.268309
 C   -1.461336    2.145643    0.208603
 N   -0.172398    2.505234    0.156971
 C    0.097894    3.819489    0.165208
 C   -3.975816    2.515255    0.322338
 C   -5.132169    3.295345    0.481863
 C   -6.337736    2.586912    0.541871
 N   -6.440018    1.264224    0.444517
 C   -5.280698    0.596212    0.268077
 N   -4.079307    1.177339    0.204651
 N   -5.396008   -0.781118    0.147178
 C   -4.429438   -1.848134    0.049952
 C   -4.830267   -3.189896    0.328147
 C   -3.842504   -4.185875    0.239088
 C   -2.509130   -3.936034   -0.107329
 C   -2.137647   -2.620123   -0.401300
 C   -3.101051   -1.602448   -0.317539
 N   -0.829296   -2.176882   -0.777475
 C    0.380923   -2.828667   -0.800355
 C    1.628354   -2.009127   -1.078280
 C    1.750984   -0.641918   -0.776297
 C    2.927261    0.047643   -1.076274
 C    4.036154   -0.599496   -1.652408
 C    3.897393   -1.968316   -1.954939
 C    2.725063   -2.667737   -1.659210
 C    5.325467    0.154562   -1.987700
 N    6.170907    0.706574   -0.913648
 C    6.911229   -0.251240   -0.062045
 C    6.241445   -0.617843    1.286228
 N    5.848872    0.562173    2.094851
 C    6.906538    1.179586    2.903988
 C    5.034888    1.468974    1.251308
 C    5.703553    1.849981   -0.096951
 O    0.471110   -4.034560   -0.626907
 C   -6.242518   -3.573437    0.735261
 H   -0.615426    5.858882    0.245034
 H   -2.997655    5.179073    0.342221
 H   -1.634526    1.075415    0.230541
 H    1.152281    4.088347    0.121219
 H   -5.128398    4.373649    0.583717
 H   -7.279553    3.117398    0.680395
 H   -6.362256   -1.049856    0.258539
 H   -4.108982   -5.219176    0.458444
 H   -1.776716   -4.732532   -0.156789
 H   -2.823843   -0.586140   -0.545343
 H   -0.784166   -1.200339   -1.031082
 H    0.923174   -0.109212   -0.313496
 H    2.962033    1.115600   -0.865495
 H    4.722599   -2.513243   -2.412971
 H    2.636876   -3.728304   -1.882032
 H    5.972704   -0.513791   -2.573737
 H    5.061252    1.001833   -2.637467
 H    7.148276   -1.515577   -0.807653
 H    8.257966    0.362705    0.263658
 H    6.802593   -1.259790    1.852351
 H    4.895381   -1.371804    0.905745
 H    7.689245    1.608867    2.268454
 H    7.360785    0.431496    3.563893
 H    6.487160    1.971894    3.534094
 H    4.822407    2.760466    2.009825
 H    4.096754    1.026049    1.121351
 H    7.020694    2.660005    0.324626
 H    5.131779    2.505080   -0.668536
 H   -6.958187   -3.383447   -0.076990
 H   -6.578453   -3.002513    1.612334
 H   -6.338982   -4.635552    0.999419
}
memory 20GB
set_num_threads(6)
psi4_io.set_default_path("/scratch/bdw2292")
set freeze_core True
E, wfn = energy('mp2/6-311++G**',return_wfn=True)
oeprop(wfn,"WIBERG_LOWDIN_INDICES")
clean()
--------------------------------------------------------------------------

    Molecular point group: c1

    Geometry (in Angstrom), charge = 0, multiplicity = 1:

       Center              X                  Y                   Z               Mass
    ------------   -----------------  -----------------  -----------------  -----------------
         C           -0.813814840517     4.853066684192     0.259804754782    12.000000000000
         C           -2.156124840517     4.453087684192     0.317618754782    12.000000000000
         C           -2.484119840517     3.082819684192     0.293194754782    12.000000000000
         C           -1.384836840517     2.190405684192     0.233488754782    12.000000000000
         N           -0.095898840517     2.549996684192     0.181856754782    14.003074004430
         C            0.174393159483     3.864251684192     0.190093754782    12.000000000000
         C           -3.899316840517     2.560017684192     0.347223754782    12.000000000000
         C           -5.055669840517     3.340107684192     0.506748754782    12.000000000000
         C           -6.261236840517     2.631674684192     0.566756754782    12.000000000000
         N           -6.363518840517     1.308986684192     0.469402754782    14.003074004430
         C           -5.204198840517     0.640974684192     0.292962754782    12.000000000000
         N           -4.002807840517     1.222101684192     0.229536754782    14.003074004430
         N           -5.319508840517    -0.736355315808     0.172063754782    14.003074004430
         C           -4.352938840517    -1.803371315808     0.074837754782    12.000000000000
         C           -4.753767840517    -3.145133315808     0.353032754782    12.000000000000
         C           -3.766004840517    -4.141112315808     0.263973754782    12.000000000000
         C           -2.432630840517    -3.891271315808    -0.082443245218    12.000000000000
         C           -2.061147840517    -2.575360315808    -0.376414245218    12.000000000000
         C           -3.024551840517    -1.557685315808    -0.292653245218    12.000000000000
         N           -0.752796840517    -2.132119315808    -0.752589245218    14.003074004430
         C            0.457422159483    -2.783904315808    -0.775469245218    12.000000000000
         C            1.704853159483    -1.964364315808    -1.053394245218    12.000000000000
         C            1.827483159483    -0.597155315808    -0.751411245218    12.000000000000
         C            3.003760159483     0.092405684192    -1.051388245218    12.000000000000
         C            4.112653159483    -0.554733315808    -1.627522245218    12.000000000000
         C            3.973892159483    -1.923553315808    -1.930053245218    12.000000000000
         C            2.801562159483    -2.622974315808    -1.634324245218    12.000000000000
         C            5.401966159483     0.199324684192    -1.962814245218    12.000000000000
         N            6.247406159483     0.751336684192    -0.888762245218    14.003074004430
         C            6.987728159483    -0.206477315808    -0.037159245218    12.000000000000
         C            6.317944159483    -0.573080315808     1.311113754782    12.000000000000
         N            5.925371159483     0.606935684192     2.119736754782    14.003074004430
         C            6.983037159483     1.224348684192     2.928873754782    12.000000000000
         C            5.111387159483     1.513736684192     1.276193754782    12.000000000000
         C            5.780052159483     1.894743684192    -0.072065245218    12.000000000000
         O            0.547609159483    -3.989797315808    -0.602021245218    15.994914619570
         C           -6.166018840517    -3.528674315808     0.760146754782    12.000000000000
         H           -0.538926840517     5.903644684192     0.269919754782     1.007825032230
         H           -2.921155840517     5.223835684192     0.367106754782     1.007825032230
         H           -1.558026840517     1.120177684192     0.255426754782     1.007825032230
         H            1.228780159483     4.133109684192     0.146104754782     1.007825032230
         H           -5.051898840517     4.418411684192     0.608602754782     1.007825032230
         H           -7.203053840517     3.162160684192     0.705280754782     1.007825032230
         H           -6.285756840517    -1.005093315808     0.283424754782     1.007825032230
         H           -4.032482840517    -5.174413315808     0.483329754782     1.007825032230
         H           -1.700216840517    -4.687769315808    -0.131903245218     1.007825032230
         H           -2.747343840517    -0.541377315808    -0.520457245218     1.007825032230
         H           -0.707666840517    -1.155576315808    -1.006196245218     1.007825032230
         H            0.999673159483    -0.064449315808    -0.288610245218     1.007825032230
         H            3.038532159483     1.160362684192    -0.840609245218     1.007825032230
         H            4.799098159483    -2.468480315808    -2.388085245218     1.007825032230
         H            2.713375159483    -3.683541315808    -1.857146245218     1.007825032230
         H            6.049203159483    -0.469028315808    -2.548851245218     1.007825032230
         H            5.137751159483     1.046595684192    -2.612581245218     1.007825032230
         H            7.224775159483    -1.470814315808    -0.782767245218     1.007825032230
         H            8.334465159483     0.407467684192     0.288543754782     1.007825032230
         H            6.879092159483    -1.215027315808     1.877236754782     1.007825032230
         H            4.971880159483    -1.327041315808     0.930630754782     1.007825032230
         H            7.765744159483     1.653629684192     2.293339754782     1.007825032230
         H            7.437284159483     0.476258684192     3.588778754782     1.007825032230
         H            6.563659159483     2.016656684192     3.558979754782     1.007825032230
         H            4.898906159483     2.805228684192     2.034710754782     1.007825032230
         H            4.173253159483     1.070811684192     1.146236754782     1.007825032230
         H            7.097193159483     2.704767684192     0.349511754782     1.007825032230
         H            5.208278159483     2.549842684192    -0.643650245218     1.007825032230
         H           -6.881687840517    -3.338684315808    -0.052104245218     1.007825032230
         H           -6.501953840517    -2.957750315808     1.637219754782     1.007825032230
         H           -6.262482840517    -4.590789315808     1.024304754782     1.007825032230

  Charge       = 0
  Multiplicity = 1
  Basis Set: 6-311++G**
    Blend: 6-311++G**
  Basis Set: (6-311++G** AUX)
    Blend: AUG-CC-PVTZ-JKFIT

    Orbital Energies [Eh]
    ---------------------

    Doubly Occupied:

       1A    -20.519920     2A    -15.604240     3A    -15.601945
       4A    -15.588473     5A    -15.577958     6A    -15.574881
       7A    -15.569720     8A    -15.558433     9A    -11.376070
      10A    -11.364051    11A    -11.340621    12A    -11.335213
      13A    -11.314808    14A    -11.309683    15A    -11.302393
      16A    -11.301601    17A    -11.301507    18A    -11.300647
      19A    -11.296559    20A    -11.293059    21A    -11.290286
      22A    -11.281362    23A    -11.281102    24A    -11.266483
      25A    -11.259414    26A    -11.256909    27A    -11.254512
      28A    -11.253155    29A    -11.249311    30A    -11.247305
      31A    -11.246862    32A    -11.246047    33A    -11.245226
      34A    -11.239962    35A    -11.235458    36A    -11.231071
      37A    -11.225008    38A     -1.386091    39A     -1.344972
      40A     -1.279636    41A     -1.251156    42A     -1.250509
      43A     -1.241507    44A     -1.210306    45A     -1.204632
      46A     -1.162143    47A     -1.139846    48A     -1.116590
      49A     -1.076004    50A     -1.060178    51A     -1.049281
      52A     -1.038270    53A     -1.023925    54A     -1.008114
      55A     -1.006317    56A     -0.980656    57A     -0.948437
      58A     -0.931174    59A     -0.927156    60A     -0.901422
      61A     -0.873490    62A     -0.870292    63A     -0.858841
      64A     -0.853055    65A     -0.838868    66A     -0.833493
      67A     -0.825453    68A     -0.807533    69A     -0.778936
      70A     -0.754772    71A     -0.740524    72A     -0.731749
      73A     -0.722838    74A     -0.721824    75A     -0.698314
      76A     -0.683586    77A     -0.675009    78A     -0.668742
      79A     -0.658957    80A     -0.653807    81A     -0.651984
      82A     -0.646625    83A     -0.636713    84A     -0.632453
      85A     -0.625834    86A     -0.620596    87A     -0.619527
      88A     -0.615848    89A     -0.612021    90A     -0.606728
      91A     -0.602757    92A     -0.599278    93A     -0.596311
      94A     -0.592224    95A     -0.589811    96A     -0.582002
      97A     -0.581196    98A     -0.578214    99A     -0.569948
     100A     -0.562363   101A     -0.548179   102A     -0.545170
     103A     -0.538383   104A     -0.529687   105A     -0.524028
     106A     -0.521572   107A     -0.513552   108A     -0.509167
     109A     -0.506077   110A     -0.497036   111A     -0.494508
     112A     -0.485404   113A     -0.483833   114A     -0.480561
     115A     -0.456391   116A     -0.452701   117A     -0.444171
     118A     -0.428175   119A     -0.425837   120A     -0.417346
     121A     -0.415318   122A     -0.401151   123A     -0.396143
     124A     -0.378986   125A     -0.374228   126A     -0.347051
     127A     -0.346011   128A     -0.342495   129A     -0.316347
     130A     -0.313238   131A     -0.290414

  @DF-RHF Final Energy: -1572.26262673488668

   => Energetics <=

    Nuclear Repulsion Energy =           3712.6860179374516520
    One-Electron Energy =               -9523.1468032619904989
    Two-Electron Energy =                4238.1981585896519391
    Total Energy =                      -1572.2626267348869078

  Dipole Moment: [D]
     X:    -2.5220      Y:     6.4584      Z:    -0.3445     Total:     6.9419

  Basis Set: (6-311++G** AUX)
    Blend: AUG-CC-PVTZ-RI
	 Reference Energy          =   -1572.2626267348866804 [Eh]
	 Singles Energy            =      -0.0000000000000000 [Eh]
	 Same-Spin Energy          =      -1.4708258201304125 [Eh]
	 Opposite-Spin Energy      =      -4.0507122037373282 [Eh]
	 Correlation Energy        =      -5.5215380238677412 [Eh]
	 Total Energy              =   -1577.7841647587545140 [Eh]

	 ================> DF-SCS-MP2 Energies <==================
	-----------------------------------------------------------
	 SCS Same-Spin Scale       =       0.3333333333333333 [-]
	 SCS Opposite-Spin Scale   =       1.2000000000000000 [-]
	 SCS Same-Spin Energy      =      -0.4902752733768042 [Eh]
	 SCS Opposite-Spin Energy  =      -4.8608546444847933 [Eh]
	 SCS Correlation Energy    =      -5.3511299178615976 [Eh]
	 SCS Total Energy          =   -1577.6137566527481795 [Eh]
	-----------------------------------------------------------

*** Psi4 exiting successfully. Buy a developer a beer!
