                               Psi4 1.3.2 release

  ==> Input File <==

--------------------------------------------------------------------------
molecule {
0 1
 C   -0.787696    4.743968    0.322472
 C   -2.095019    4.265956    0.483537
 C   -2.365807    2.887561    0.359711
 C   -1.249849    2.068367    0.056222
 N    0.005145    2.508337   -0.109414
 C    0.223590    3.823762    0.028365
 C   -3.749713    2.299061    0.503346
 C   -4.922723    3.045956    0.705082
 C   -6.110367    2.310268    0.764229
 N   -6.182016    0.987581    0.656841
 C   -5.005876    0.347053    0.483743
 N   -3.818167    0.955628    0.411357
 N   -5.108701   -1.035409    0.400105
 C   -4.158135   -2.101522    0.208992
 C   -4.585414   -3.454706    0.370820
 C   -3.624389   -4.457101    0.157565
 C   -2.290500   -4.204654   -0.185855
 C   -1.884601   -2.872911   -0.326361
 C   -2.826091   -1.851912   -0.135107
 N   -0.554303   -2.461185   -0.622225
 C   -0.071785   -1.531346   -1.514797
 C    1.423778   -1.288776   -1.563185
 C    2.383282   -2.285903   -1.324380
 C    3.746194   -1.984718   -1.377209
 C    4.199888   -0.688235   -1.685434
 C    3.228365    0.295774   -1.947843
 C    1.864042    0.003421   -1.896404
 C    5.691375   -0.352600   -1.713672
 N    6.342104    0.138970   -0.485913
 C    6.514525   -0.795525    0.649093
 C    5.412108   -0.714727    1.735319
 N    5.161002    0.647619    2.257237
 C    6.078774    1.132120    3.295404
 C    4.920340    1.559217    1.113278
 C    6.005972    1.494778    0.006718
 O   -0.812365   -0.885889   -2.237048
 C   -6.005057   -3.846363    0.743551
 H   -0.557774    5.800888    0.419360
 H   -2.876266    4.986079    0.713428
 H   -1.379893    1.001631   -0.077553
 H    1.253392    4.150403   -0.108342
 H   -4.950482    4.125692    0.783661
 H   -7.064126    2.818227    0.904160
 H   -6.074975   -1.305206    0.507244
 H   -3.915828   -5.501262    0.267644
 H   -1.583892   -5.014239   -0.322361
 H   -2.513935   -0.828846   -0.261718
 H    0.133129   -2.945913   -0.062923
 H    2.060243   -3.299316   -1.100050
 H    4.465888   -2.777510   -1.172655
 H    3.532714    1.314574   -2.186634
 H    1.121606    0.774488   -2.083937
 H    6.242583   -1.251089   -2.027710
 H    5.859863    0.407812   -2.490149
 H    6.665063   -1.782257    0.301373
 H    7.848330   -0.372660    1.386256
 H    5.784855   -1.561644    2.818497
 H    4.205368   -1.188853    1.195467
 H    7.094360    1.248309    2.900555
 H    6.104502    0.428834    4.135508
 H    5.737137    2.100244    3.679443
 H    4.787926    2.622933    1.498260
 H    3.639486    1.152685    0.509632
 H    7.315949    2.071613    0.679962
 H    5.757824    2.178422   -0.858088
 H   -6.721723   -3.534561   -0.029202
 H   -6.316033   -3.380964    1.689570
 H   -6.132198   -4.930215    0.871451
}
memory 20GB
set_num_threads(6)
psi4_io.set_default_path("/scratch/bdw2292")
set freeze_core True
E, wfn = energy('mp2/6-311++G**',return_wfn=True)
oeprop(wfn,"WIBERG_LOWDIN_INDICES")
clean()
--------------------------------------------------------------------------

    Molecular point group: c1

    Geometry (in Angstrom), charge = 0, multiplicity = 1:

       Center              X                  Y                   Z               Mass
    ------------   -----------------  -----------------  -----------------  -----------------
         C           -0.723160552959     4.780741447084     0.339253535624    12.000000000000
         C           -2.030483552959     4.302729447084     0.500318535624    12.000000000000
         C           -2.301271552959     2.924334447084     0.376492535624    12.000000000000
         C           -1.185313552959     2.105140447084     0.073003535624    12.000000000000
         N            0.069680447041     2.545110447084    -0.092632464376    14.003074004430
         C            0.288125447041     3.860535447084     0.045146535624    12.000000000000
         C           -3.685177552959     2.335834447084     0.520127535624    12.000000000000
         C           -4.858187552959     3.082729447084     0.721863535624    12.000000000000
         C           -6.045831552959     2.347041447084     0.781010535624    12.000000000000
         N           -6.117480552959     1.024354447084     0.673622535624    14.003074004430
         C           -4.941340552959     0.383826447084     0.500524535624    12.000000000000
         N           -3.753631552959     0.992401447084     0.428138535624    14.003074004430
         N           -5.044165552959    -0.998635552916     0.416886535624    14.003074004430
         C           -4.093599552959    -2.064748552916     0.225773535624    12.000000000000
         C           -4.520878552959    -3.417932552916     0.387601535624    12.000000000000
         C           -3.559853552959    -4.420327552916     0.174346535624    12.000000000000
         C           -2.225964552959    -4.167880552916    -0.169073464376    12.000000000000
         C           -1.820065552959    -2.836137552916    -0.309579464376    12.000000000000
         C           -2.761555552959    -1.815138552916    -0.118325464376    12.000000000000
         N           -0.489767552959    -2.424411552916    -0.605443464376    14.003074004430
         C           -0.007249552959    -1.494572552916    -1.498015464376    12.000000000000
         C            1.488313447041    -1.252002552916    -1.546403464376    12.000000000000
         C            2.447817447041    -2.249129552916    -1.307598464376    12.000000000000
         C            3.810729447041    -1.947944552916    -1.360427464376    12.000000000000
         C            4.264423447041    -0.651461552916    -1.668652464376    12.000000000000
         C            3.292900447041     0.332547447084    -1.931061464376    12.000000000000
         C            1.928577447041     0.040194447084    -1.879622464376    12.000000000000
         C            5.755910447041    -0.315826552916    -1.696890464376    12.000000000000
         N            6.406639447041     0.175743447084    -0.469131464376    14.003074004430
         C            6.579060447041    -0.758751552916     0.665874535624    12.000000000000
         C            5.476643447041    -0.677953552916     1.752100535624    12.000000000000
         N            5.225537447041     0.684392447084     2.274018535624    14.003074004430
         C            6.143309447041     1.168893447084     3.312185535624    12.000000000000
         C            4.984875447041     1.595990447084     1.130059535624    12.000000000000
         C            6.070507447041     1.531551447084     0.023499535624    12.000000000000
         O           -0.747829552959    -0.849115552916    -2.220266464376    15.994914619570
         C           -5.940521552959    -3.809589552916     0.760332535624    12.000000000000
         H           -0.493238552959     5.837661447084     0.436141535624     1.007825032230
         H           -2.811730552959     5.022852447084     0.730209535624     1.007825032230
         H           -1.315357552959     1.038404447084    -0.060771464376     1.007825032230
         H            1.317927447041     4.187176447084    -0.091560464376     1.007825032230
         H           -4.885946552959     4.162465447084     0.800442535624     1.007825032230
         H           -6.999590552959     2.855000447084     0.920941535624     1.007825032230
         H           -6.010439552959    -1.268432552916     0.524025535624     1.007825032230
         H           -3.851292552959    -5.464488552916     0.284425535624     1.007825032230
         H           -1.519356552959    -4.977465552916    -0.305579464376     1.007825032230
         H           -2.449399552959    -0.792072552916    -0.244936464376     1.007825032230
         H            0.197664447041    -2.909139552916    -0.046141464376     1.007825032230
         H            2.124778447041    -3.262542552916    -1.083268464376     1.007825032230
         H            4.530423447041    -2.740736552916    -1.155873464376     1.007825032230
         H            3.597249447041     1.351347447084    -2.169852464376     1.007825032230
         H            1.186141447041     0.811261447084    -2.067155464376     1.007825032230
         H            6.307118447041    -1.214315552916    -2.010928464376     1.007825032230
         H            5.924398447041     0.444585447084    -2.473367464376     1.007825032230
         H            6.729598447041    -1.745483552916     0.318154535624     1.007825032230
         H            7.912865447041    -0.335886552916     1.403037535624     1.007825032230
         H            5.849390447041    -1.524870552916     2.835278535624     1.007825032230
         H            4.269903447041    -1.152079552916     1.212248535624     1.007825032230
         H            7.158895447041     1.285082447084     2.917336535624     1.007825032230
         H            6.169037447041     0.465607447084     4.152289535624     1.007825032230
         H            5.801672447041     2.137017447084     3.696224535624     1.007825032230
         H            4.852461447041     2.659706447084     1.515041535624     1.007825032230
         H            3.704021447041     1.189458447084     0.526413535624     1.007825032230
         H            7.380484447041     2.108386447084     0.696743535624     1.007825032230
         H            5.822359447041     2.215195447084    -0.841306464376     1.007825032230
         H           -6.657187552959    -3.497787552916    -0.012420464376     1.007825032230
         H           -6.251497552959    -3.344190552916     1.706351535624     1.007825032230
         H           -6.067662552959    -4.893441552916     0.888232535624     1.007825032230

  Charge       = 0
  Multiplicity = 1
  Basis Set: 6-311++G**
    Blend: 6-311++G**
  Basis Set: (6-311++G** AUX)
    Blend: AUG-CC-PVTZ-JKFIT

    Orbital Energies [Eh]
    ---------------------

    Doubly Occupied:

       1A    -20.517839     2A    -15.598227     3A    -15.596071
       4A    -15.573385     5A    -15.572156     6A    -15.566211
       7A    -15.561211     8A    -15.556613     9A    -11.368277
      10A    -11.363467    11A    -11.325751    12A    -11.319071
      13A    -11.313208    14A    -11.305679    15A    -11.305481
      16A    -11.298671    17A    -11.297528    18A    -11.289370
      19A    -11.286791    20A    -11.286138    21A    -11.280582
      22A    -11.278064    23A    -11.268001    24A    -11.258017
      25A    -11.257669    26A    -11.256555    27A    -11.253618
      28A    -11.251217    29A    -11.248259    30A    -11.246257
      31A    -11.245353    32A    -11.243937    33A    -11.243619
      34A    -11.242834    35A    -11.236908    36A    -11.236873
      37A    -11.224057    38A     -1.385619    39A     -1.336182
      40A     -1.264837    41A     -1.247939    42A     -1.246729
      43A     -1.235911    44A     -1.201390    45A     -1.200717
      46A     -1.162114    47A     -1.139056    48A     -1.104969
      49A     -1.067464    50A     -1.058766    51A     -1.039738
      52A     -1.035672    53A     -1.024235    54A     -1.006938
      55A     -0.998396    56A     -0.977735    57A     -0.945618
      58A     -0.927356    59A     -0.916036    60A     -0.895143
      61A     -0.867913    62A     -0.861873    63A     -0.849488
      64A     -0.844650    65A     -0.836916    66A     -0.830611
      67A     -0.820747    68A     -0.804653    69A     -0.780346
      70A     -0.750159    71A     -0.737139    72A     -0.725485
      73A     -0.715098    74A     -0.698910    75A     -0.692401
      76A     -0.680413    77A     -0.676493    78A     -0.659950
      79A     -0.657269    80A     -0.653435    81A     -0.649903
      82A     -0.645893    83A     -0.634627    84A     -0.631139
      85A     -0.622588    86A     -0.618119    87A     -0.611100
      88A     -0.604720    89A     -0.602633    90A     -0.598997
      91A     -0.596462    92A     -0.594927    93A     -0.591522
      94A     -0.584004    95A     -0.581923    96A     -0.576873
      97A     -0.575983    98A     -0.571780    99A     -0.564283
     100A     -0.549359   101A     -0.548526   102A     -0.536458
     103A     -0.532093   104A     -0.525888   105A     -0.524383
     106A     -0.517607   107A     -0.513710   108A     -0.510119
     109A     -0.505005   110A     -0.499804   111A     -0.498737
     112A     -0.491722   113A     -0.481087   114A     -0.472672
     115A     -0.461488   116A     -0.442467   117A     -0.430556
     118A     -0.428266   119A     -0.423184   120A     -0.416326
     121A     -0.404485   122A     -0.389266   123A     -0.387638
     124A     -0.380026   125A     -0.367362   126A     -0.346858
     127A     -0.339443   128A     -0.336277   129A     -0.317285
     130A     -0.310066   131A     -0.292775

  @DF-RHF Final Energy: -1572.30574531391494

   => Energetics <=

    Nuclear Repulsion Energy =           3773.4692610592924211
    One-Electron Energy =               -9646.0022544364437636
    Two-Electron Energy =                4300.2272480632364022
    Total Energy =                      -1572.3057453139153949

  Dipole Moment: [D]
     X:    -0.4545      Y:     1.1833      Z:     2.1251     Total:     2.4745

  Basis Set: (6-311++G** AUX)
    Blend: AUG-CC-PVTZ-RI
	 Reference Energy          =   -1572.3057453139149402 [Eh]
	 Singles Energy            =      -0.0000000000000000 [Eh]
	 Same-Spin Energy          =      -1.4725035875911237 [Eh]
	 Opposite-Spin Energy      =      -4.0521061335989099 [Eh]
	 Correlation Energy        =      -5.5246097211900338 [Eh]
	 Total Energy              =   -1577.8303550351049580 [Eh]

	 ================> DF-SCS-MP2 Energies <==================
	-----------------------------------------------------------
	 SCS Same-Spin Scale       =       0.3333333333333333 [-]
	 SCS Opposite-Spin Scale   =       1.2000000000000000 [-]
	 SCS Same-Spin Energy      =      -0.4908345291970412 [Eh]
	 SCS Opposite-Spin Energy  =      -4.8625273603186914 [Eh]
	 SCS Correlation Energy    =      -5.3533618895157327 [Eh]
	 SCS Total Energy          =   -1577.6591072034307217 [Eh]
	-----------------------------------------------------------

*** Psi4 exiting successfully. Buy a developer a beer!
