                               Psi4 1.3.2 release

  ==> Input File <==

--------------------------------------------------------------------------
molecule {
0 1
 C   -0.530629    4.237999    0.005172
 C    0.853442    4.297993    0.220045
 C    1.631318    3.126335    0.131763
 C    0.923769    1.944971   -0.203729
 N   -0.395789    1.866507   -0.419244
 C   -1.104340    3.000214   -0.307038
 C    3.124425    3.095117    0.353460
 C    3.943067    4.210924    0.589417
 C    5.309072    3.940858    0.731973
 N    5.847807    2.725836    0.673130
 C    4.984257    1.709409    0.467340
 N    3.666300    1.862946    0.310154
 N    5.546743    0.441032    0.424469
 C    5.000556   -0.870068    0.168376
 C    5.871092   -1.942695   -0.192280
 C    5.277510   -3.190021   -0.454868
 C    3.900326   -3.433071   -0.379532
 C    3.064821   -2.378892    0.001869
 C    3.627586   -1.121342    0.270425
 N    1.641941   -2.429910    0.127146
 C    0.724838   -3.396916   -0.212357
 C   -0.738487   -2.994151   -0.189237
 C   -1.171006   -1.690009   -0.481094
 C   -2.523691   -1.355975   -0.413367
 C   -3.506990   -2.309000   -0.086851
 C   -3.058893   -3.620517    0.177859
 C   -1.704940   -3.964125    0.120731
 C   -5.002341   -1.988588    0.039640
 N   -5.542724   -0.661325   -0.325667
 C   -7.014852   -0.614196   -0.483984
 C   -7.582739    0.753866   -0.935095
 N   -7.185775    1.887289   -0.070681
 C   -7.991030    2.094062    1.138969
 C   -5.720280    1.840200    0.117594
 C   -5.151535    0.469272    0.560481
 O    1.052257   -4.536169   -0.506259
 C    7.375402   -1.785040   -0.332782
 H   -1.149494    5.127487    0.075918
 H    1.295394    5.260107    0.467192
 H    1.463084    1.012394   -0.330766
 H   -2.175256    2.911852   -0.483594
 H    3.581128    5.230671    0.637215
 H    6.013517    4.754809    0.901427
 H    6.549333    0.509800    0.515495
 H    5.909444   -4.027026   -0.749773
 H    3.479678   -4.405728   -0.604035
 H    2.988523   -0.304170    0.563460
 H    1.231163   -1.565805    0.451042
 H   -0.447541   -0.926170   -0.756444
 H   -2.790645   -0.332232   -0.664647
 H   -3.778453   -4.395312    0.443768
 H   -1.374369   -4.978411    0.330365
 H   -5.495064   -2.742003   -0.594278
 H   -5.302396   -2.153466    1.086236
 H   -7.422403   -1.622359   -1.578781
 H   -7.669393   -1.000976    0.804487
 H   -8.596958    0.746690   -1.061936
 H   -6.917657    1.018316   -2.361718
 H   -7.891102    1.246569    1.827028
 H   -9.047876    2.209208    0.872613
 H   -7.673473    3.007819    1.654244
 H   -5.344500    2.826994    1.078028
 H   -5.064527    2.175130   -1.238553
 H   -5.748111    0.193720    1.993969
 H   -4.198967    0.506526    0.663151
 H    7.842847   -1.529089    0.628450
 H    7.631057   -0.989489   -1.046897
 H    7.871194   -2.697816   -0.691176
}
memory 20GB
set_num_threads(6)
psi4_io.set_default_path("/scratch/bdw2292")
set freeze_core True
E, wfn = energy('mp2/6-311++G**',return_wfn=True)
oeprop(wfn,"WIBERG_LOWDIN_INDICES")
clean()
--------------------------------------------------------------------------

    Molecular point group: c1

    Geometry (in Angstrom), charge = 0, multiplicity = 1:

       Center              X                  Y                   Z               Mass
    ------------   -----------------  -----------------  -----------------  -----------------
         C           -0.648407387849     4.260173601377    -0.014905456264    12.000000000000
         C            0.735663612151     4.320167601377     0.199967543736    12.000000000000
         C            1.513539612151     3.148509601377     0.111685543736    12.000000000000
         C            0.805990612151     1.967145601377    -0.223806456264    12.000000000000
         N           -0.513567387849     1.888681601377    -0.439321456264    14.003074004430
         C           -1.222118387849     3.022388601377    -0.327115456264    12.000000000000
         C            3.006646612151     3.117291601377     0.333382543736    12.000000000000
         C            3.825288612151     4.233098601377     0.569339543736    12.000000000000
         C            5.191293612151     3.963032601377     0.711895543736    12.000000000000
         N            5.730028612151     2.748010601377     0.653052543736    14.003074004430
         C            4.866478612151     1.731583601377     0.447262543736    12.000000000000
         N            3.548521612151     1.885120601377     0.290076543736    14.003074004430
         N            5.428964612151     0.463206601377     0.404391543736    14.003074004430
         C            4.882777612151    -0.847893398623     0.148298543736    12.000000000000
         C            5.753313612151    -1.920520398623    -0.212357456264    12.000000000000
         C            5.159731612151    -3.167846398623    -0.474945456264    12.000000000000
         C            3.782547612151    -3.410896398623    -0.399609456264    12.000000000000
         C            2.947042612151    -2.356717398623    -0.018208456264    12.000000000000
         C            3.509807612151    -1.099167398623     0.250347543736    12.000000000000
         N            1.524162612151    -2.407735398623     0.107068543736    14.003074004430
         C            0.607059612151    -3.374741398623    -0.232434456264    12.000000000000
         C           -0.856265387849    -2.971976398623    -0.209314456264    12.000000000000
         C           -1.288784387849    -1.667834398623    -0.501171456264    12.000000000000
         C           -2.641469387849    -1.333800398623    -0.433444456264    12.000000000000
         C           -3.624768387849    -2.286825398623    -0.106928456264    12.000000000000
         C           -3.176671387849    -3.598342398623     0.157781543736    12.000000000000
         C           -1.822718387849    -3.941950398623     0.100653543736    12.000000000000
         C           -5.120119387849    -1.966413398623     0.019562543736    12.000000000000
         N           -5.660502387849    -0.639150398623    -0.345744456264    14.003074004430
         C           -7.132630387849    -0.592021398623    -0.504061456264    12.000000000000
         C           -7.700517387849     0.776040601377    -0.955172456264    12.000000000000
         N           -7.303553387849     1.909463601377    -0.090758456264    14.003074004430
         C           -8.108808387849     2.116236601377     1.118891543736    12.000000000000
         C           -5.838058387849     1.862374601377     0.097516543736    12.000000000000
         C           -5.269313387849     0.491446601377     0.540403543736    12.000000000000
         O            0.934478612151    -4.513994398623    -0.526336456264    15.994914619570
         C            7.257623612151    -1.762865398623    -0.352859456264    12.000000000000
         H           -1.267272387849     5.149661601377     0.055840543736     1.007825032230
         H            1.177615612151     5.282281601377     0.447114543736     1.007825032230
         H            1.345305612151     1.034568601377    -0.350843456264     1.007825032230
         H           -2.293034387849     2.934026601377    -0.503671456264     1.007825032230
         H            3.463349612151     5.252845601377     0.617137543736     1.007825032230
         H            5.895738612151     4.776983601377     0.881349543736     1.007825032230
         H            6.431554612151     0.531974601377     0.495417543736     1.007825032230
         H            5.791665612151    -4.004851398623    -0.769850456264     1.007825032230
         H            3.361899612151    -4.383553398623    -0.624112456264     1.007825032230
         H            2.870744612151    -0.281995398623     0.543382543736     1.007825032230
         H            1.113384612151    -1.543630398623     0.430964543736     1.007825032230
         H           -0.565319387849    -0.903995398623    -0.776521456264     1.007825032230
         H           -2.908423387849    -0.310057398623    -0.684724456264     1.007825032230
         H           -3.896231387849    -4.373137398623     0.423690543736     1.007825032230
         H           -1.492147387849    -4.956236398623     0.310287543736     1.007825032230
         H           -5.612842387849    -2.719828398623    -0.614355456264     1.007825032230
         H           -5.420174387849    -2.131291398623     1.066158543736     1.007825032230
         H           -7.540181387849    -1.600184398623    -1.598858456264     1.007825032230
         H           -7.787171387849    -0.978801398623     0.784409543736     1.007825032230
         H           -8.714736387849     0.768864601377    -1.082013456264     1.007825032230
         H           -7.035435387849     1.040490601377    -2.381795456264     1.007825032230
         H           -8.008880387849     1.268743601377     1.806950543736     1.007825032230
         H           -9.165654387849     2.231382601377     0.852535543736     1.007825032230
         H           -7.791251387849     3.029993601377     1.634166543736     1.007825032230
         H           -5.462278387849     2.849168601377     1.057950543736     1.007825032230
         H           -5.182305387849     2.197304601377    -1.258630456264     1.007825032230
         H           -5.865889387849     0.215894601377     1.973891543736     1.007825032230
         H           -4.316745387849     0.528700601377     0.643073543736     1.007825032230
         H            7.725068612151    -1.506914398623     0.608372543736     1.007825032230
         H            7.513278612151    -0.967314398623    -1.066974456264     1.007825032230
         H            7.753415612151    -2.675641398623    -0.711253456264     1.007825032230

  Charge       = 0
  Multiplicity = 1
  Basis Set: 6-311++G**
    Blend: 6-311++G**
  Basis Set: (6-311++G** AUX)
    Blend: AUG-CC-PVTZ-JKFIT

    Orbital Energies [Eh]
    ---------------------

    Doubly Occupied:

       1A    -20.519265     2A    -15.603631     3A    -15.599539
       4A    -15.595347     5A    -15.586883     6A    -15.577468
       7A    -15.574241     8A    -15.568767     9A    -11.375481
      10A    -11.362001    11A    -11.352300    12A    -11.347937
      13A    -11.334364    14A    -11.314147    15A    -11.314105
      16A    -11.308150    17A    -11.300620    18A    -11.300548
      19A    -11.300518    20A    -11.291781    21A    -11.289055
      22A    -11.281092    23A    -11.280242    24A    -11.266380
      25A    -11.265031    26A    -11.262516    27A    -11.252757
      28A    -11.252425    29A    -11.250141    30A    -11.249047
      31A    -11.246510    32A    -11.245000    33A    -11.241544
      34A    -11.239544    35A    -11.234770    36A    -11.229723
      37A    -11.224399    38A     -1.384208    39A     -1.344116
      40A     -1.278290    41A     -1.261786    42A     -1.250535
      43A     -1.240651    44A     -1.219277    45A     -1.209513
      46A     -1.161007    47A     -1.138869    48A     -1.115392
      49A     -1.075055    50A     -1.061055    51A     -1.048337
      52A     -1.037820    53A     -1.021227    54A     -1.014174
      55A     -1.007401    56A     -0.989071    57A     -0.948911
      58A     -0.931628    59A     -0.926143    60A     -0.900645
      61A     -0.883253    62A     -0.872343    63A     -0.857996
      64A     -0.854149    65A     -0.840174    66A     -0.830118
      67A     -0.824424    68A     -0.802806    69A     -0.776701
      70A     -0.753358    71A     -0.738611    72A     -0.730144
      73A     -0.721064    74A     -0.709309    75A     -0.697339
      76A     -0.682533    77A     -0.680491    78A     -0.668449
      79A     -0.663540    80A     -0.656714    81A     -0.652135
      82A     -0.651290    83A     -0.640404    84A     -0.634420
      85A     -0.630893    86A     -0.624342    87A     -0.620100
      88A     -0.615269    89A     -0.612079    90A     -0.606314
      91A     -0.602123    92A     -0.597521    93A     -0.595166
      94A     -0.592083    95A     -0.587713    96A     -0.581780
      97A     -0.579978    98A     -0.570950    99A     -0.563019
     100A     -0.561138   101A     -0.550215   102A     -0.546953
     103A     -0.543994   104A     -0.538925   105A     -0.522436
     106A     -0.513919   107A     -0.509638   108A     -0.508263
     109A     -0.506588   110A     -0.502483   111A     -0.495664
     112A     -0.493270   113A     -0.484241   114A     -0.478141
     115A     -0.468234   116A     -0.451852   117A     -0.442852
     118A     -0.435572   119A     -0.425769   120A     -0.424460
     121A     -0.414341   122A     -0.399951   123A     -0.389138
     124A     -0.373222   125A     -0.370640   126A     -0.346934
     127A     -0.345889   128A     -0.341139   129A     -0.335242
     130A     -0.313370   131A     -0.289666

  @DF-RHF Final Energy: -1572.21094030063250

   => Energetics <=

    Nuclear Repulsion Energy =           3677.8627076014809063
    One-Electron Energy =               -9453.0920796062273439
    Two-Electron Energy =                4203.0184317041139366
    Total Energy =                      -1572.2109403006325010

  Dipole Moment: [D]
     X:    -1.1781      Y:     6.6478      Z:     2.3186     Total:     7.1384

  Basis Set: (6-311++G** AUX)
    Blend: AUG-CC-PVTZ-RI
	 Reference Energy          =   -1572.2109403006325010 [Eh]
	 Singles Energy            =      -0.0000000000000000 [Eh]
	 Same-Spin Energy          =      -1.4710412100672692 [Eh]
	 Opposite-Spin Energy      =      -4.0543012926408917 [Eh]
	 Correlation Energy        =      -5.5253425027081606 [Eh]
	 Total Energy              =   -1577.7362828033406004 [Eh]

	 ================> DF-SCS-MP2 Energies <==================
	-----------------------------------------------------------
	 SCS Same-Spin Scale       =       0.3333333333333333 [-]
	 SCS Opposite-Spin Scale   =       1.2000000000000000 [-]
	 SCS Same-Spin Energy      =      -0.4903470700224231 [Eh]
	 SCS Opposite-Spin Energy  =      -4.8651615511690700 [Eh]
	 SCS Correlation Energy    =      -5.3555086211914933 [Eh]
	 SCS Total Energy          =   -1577.5664489218240760 [Eh]
	-----------------------------------------------------------

*** Psi4 exiting successfully. Buy a developer a beer!
