 Gaussian 09, Revision A.02,
 Gaussian 09:  EM64L-G09RevA.02 11-Jun-2009

 --------------------------------------------------
 #P opt=(,maxcycle=400) wB97XD/6-31G* MaxDisk=100GB
 --------------------------------------------------

 --------------------------------------------------------------
 MOLECULE0 Rotatable Bond Optimization on node37.bme.utexas.edu
 --------------------------------------------------------------
 Symbolic Z-matrix:
 Charge =  0 Multiplicity = 1

 SCF Done:  E(RwB97XD) =  -1581.48854197     A.U. after   16 cycles
 SCF Done:  E(RwB97XD) =  -1581.54942051     A.U. after   14 cycles
 SCF Done:  E(RwB97XD) =  -1581.64936387     A.U. after   15 cycles
 SCF Done:  E(RwB97XD) =  -1581.70034359     A.U. after   15 cycles
 SCF Done:  E(RwB97XD) =  -1581.72297173     A.U. after   17 cycles
 SCF Done:  E(RwB97XD) =  -1581.73339383     A.U. after   16 cycles
 SCF Done:  E(RwB97XD) =  -1581.74044856     A.U. after   17 cycles
 SCF Done:  E(RwB97XD) =  -1581.74685656     A.U. after   14 cycles
 SCF Done:  E(RwB97XD) =  -1581.75428809     A.U. after   14 cycles
 SCF Done:  E(RwB97XD) =  -1581.72953185     A.U. after   17 cycles
 SCF Done:  E(RwB97XD) =  -1581.76091310     A.U. after   11 cycles
 SCF Done:  E(RwB97XD) =  -1581.76091404     A.U. after   11 cycles
 SCF Done:  E(RwB97XD) =  -1581.76091552     A.U. after   12 cycles
 SCF Done:  E(RwB97XD) =  -1581.76091614     A.U. after   11 cycles
 SCF Done:  E(RwB97XD) =  -1581.76091536     A.U. after   11 cycles
 SCF Done:  E(RwB97XD) =  -1581.76091475     A.U. after   12 cycles
 SCF Done:  E(RwB97XD) =  -1581.76091526     A.U. after   10 cycles
 SCF Done:  E(RwB97XD) =  -1581.76091488     A.U. after   11 cycles
 SCF Done:  E(RwB97XD) =  -1581.76091507     A.U. after    8 cycles
 SCF Done:  E(RwB97XD) =  -1581.76091522     A.U. after    7 cycles
 Optimization completed.
    -- Stationary point found.

                         Standard orientation:
 ---------------------------------------------------------------------
 Center     Atomic      Atomic             Coordinates (Angstroms)
 Number     Number       Type             X           Y           Z
 ---------------------------------------------------------------------
      1          6           0        7.447082    1.882271    0.723517
      2          6           0        6.886104    0.631692    0.943345
      3          6           0        5.748351    0.264012    0.225048
      4          6           0        5.231317    1.191786   -0.686930
      5          7           0        5.760489    2.392941   -0.910047
      6          6           0        6.848659    2.723065   -0.209838
      7          6           0        5.088287   -1.050839    0.402584
      8          6           0        5.775310   -2.182632    0.836190
      9          6           0        5.026497   -3.349255    0.959706
     10          7           0        3.733174   -3.420600    0.679225
     11          6           0        3.169019   -2.272736    0.250881
     12          7           0        3.783623   -1.098278    0.108480
     13          7           0        1.840100   -2.393279   -0.050208
     14          6           0        0.907712   -1.466629   -0.542720
     15          6           0       -0.317530   -1.978724   -1.017170
     16          6           0       -1.256226   -1.084457   -1.522095
     17          6           0       -1.022565    0.283252   -1.554363
     18          6           0        0.159106    0.782798   -1.015206
     19          6           0        1.127943   -0.086711   -0.520436
     20          7           0        0.391047    2.181312   -0.931110
     21          6           0       -0.515131    3.158009   -0.583102
     22          6           0       -1.744734    2.698124    0.143998
     23          6           0       -1.682950    1.776632    1.191118
     24          6           0       -2.850486    1.320825    1.784552
     25          6           0       -4.100885    1.742447    1.325937
     26          6           0       -4.148607    2.715526    0.326684
     27          6           0       -2.981150    3.201903   -0.252632
     28          6           0       -5.375111    1.104972    1.855286
     29          7           0       -5.804213   -0.140069    1.236018
     30          6           0       -5.079299   -1.361131    1.566743
     31          6           0       -3.972234   -1.730509    0.563588
     32          7           0       -4.437289   -1.743184   -0.823015
     33          6           0       -5.260013   -2.892932   -1.159205
     34          6           0       -5.059039   -0.457257   -1.138253
     35          6           0       -6.192258   -0.084668   -0.167485
     36          8           0       -0.314271    4.331919   -0.842862
     37          6           0       -0.626004   -3.454421   -0.983214
     38          1           0        8.326359    2.206101    1.270109
     39          1           0        7.314161   -0.038773    1.683110
     40          1           0        4.348263    0.932530   -1.265330
     41          1           0        7.259732    3.711231   -0.403608
     42          1           0        6.838031   -2.174473    1.043356
     43          1           0        5.492773   -4.272942    1.296646
     44          1           0        1.519023   -3.343384    0.060578
     45          1           0       -2.213458   -1.467398   -1.867801
     46          1           0       -1.767718    0.957040   -1.961897
     47          1           0        2.042508    0.306959   -0.099989
     48          1           0        1.251760    2.547069   -1.317893
     49          1           0       -0.721516    1.398776    1.525208
     50          1           0       -2.793478    0.597521    2.594828
     51          1           0       -5.112534    3.086716   -0.014473
     52          1           0       -3.018689    3.954611   -1.033993
     53          1           0       -5.263658    0.910534    2.928821
     54          1           0       -6.199310    1.822081    1.750055
     55          1           0       -4.656178   -1.261105    2.572499
     56          1           0       -5.808423   -2.184328    1.612111
     57          1           0       -3.559080   -2.717658    0.805528
     58          1           0       -3.151909   -1.006797    0.624435
     59          1           0       -6.214816   -2.968530   -0.611632
     60          1           0       -4.691778   -3.808656   -0.961682
     61          1           0       -5.491609   -2.864876   -2.229491
     62          1           0       -5.439975   -0.491740   -2.166155
     63          1           0       -4.273873    0.307327   -1.097544
     64          1           0       -7.034915   -0.776314   -0.317461
     65          1           0       -6.566690    0.919799   -0.393227
     66          1           0       -0.619364   -3.855134    0.039888
     67          1           0        0.088014   -4.041732   -1.574931
     68          1           0       -1.622989   -3.638164   -1.391735
 ---------------------------------------------------------------------

 The electronic state is 1-A.
 Alpha  occ. eigenvalues --  -19.22917 -14.49159 -14.47484 -14.45837 -14.45644
 Alpha  occ. eigenvalues --  -14.45485 -14.44065 -14.43828 -10.41567 -10.39772
 Alpha  occ. eigenvalues --  -10.37235 -10.36047 -10.34933 -10.34314 -10.34135
 Alpha  occ. eigenvalues --  -10.33945 -10.33323 -10.32779 -10.32548 -10.31981
 Alpha  occ. eigenvalues --  -10.31682 -10.31591 -10.31479 -10.31324 -10.31154
 Alpha  occ. eigenvalues --  -10.31029 -10.30795 -10.30725 -10.30706 -10.30544
 Alpha  occ. eigenvalues --  -10.30414 -10.30229 -10.30198 -10.30172 -10.29253
 Alpha  occ. eigenvalues --  -10.29230 -10.29088  -1.13111  -1.12095  -1.05364
 Alpha  occ. eigenvalues --   -1.04398  -1.04269  -1.02733  -1.00413  -1.00023
 Alpha  occ. eigenvalues --   -0.96005  -0.94711  -0.92488  -0.89223  -0.87527
 Alpha  occ. eigenvalues --   -0.86963  -0.86556  -0.85732  -0.84659  -0.83853
 Alpha  occ. eigenvalues --   -0.82190  -0.79254  -0.78423  -0.77695  -0.76112
 Alpha  occ. eigenvalues --   -0.73687  -0.73388  -0.73044  -0.72205  -0.70678
 Alpha  occ. eigenvalues --   -0.70177  -0.69189  -0.68730  -0.66202  -0.64679
 Alpha  occ. eigenvalues --   -0.64160  -0.63967  -0.61621  -0.60703  -0.59865
 Alpha  occ. eigenvalues --   -0.58619  -0.57954  -0.57125  -0.56731  -0.56089
 Alpha  occ. eigenvalues --   -0.55569  -0.55490  -0.55232  -0.54877  -0.54493
 Alpha  occ. eigenvalues --   -0.54199  -0.53854  -0.53292  -0.53139  -0.51933
 Alpha  occ. eigenvalues --   -0.51766  -0.51418  -0.51169  -0.50641  -0.50456
 Alpha  occ. eigenvalues --   -0.50104  -0.49758  -0.49366  -0.48954  -0.47950
 Alpha  occ. eigenvalues --   -0.47670  -0.47149  -0.46683  -0.46584  -0.45907
 Alpha  occ. eigenvalues --   -0.45682  -0.45501  -0.45074  -0.44286  -0.43729
 Alpha  occ. eigenvalues --   -0.43307  -0.42807  -0.42183  -0.41724  -0.41341
 Alpha  occ. eigenvalues --   -0.41301  -0.41086  -0.39958  -0.37345  -0.36410
 Alpha  occ. eigenvalues --   -0.34968  -0.34787  -0.33577  -0.33399  -0.33056
 Alpha  occ. eigenvalues --   -0.32667  -0.31808  -0.31026  -0.29892  -0.27275
 Alpha  occ. eigenvalues --   -0.25485
 Alpha virt. eigenvalues --    0.00278   0.03633   0.04016   0.04720   0.06283
 Alpha virt. eigenvalues --    0.07729   0.07753   0.10318   0.13503   0.14532
 Alpha virt. eigenvalues --    0.16116   0.16918   0.17631   0.17818   0.18499

 Mulliken atomic charges:
              1
     1  C   -0.195528
     2  C   -0.157384
     3  C    0.035158
     4  C    0.008136
     5  N   -0.420628
     6  C    0.026046
     7  C    0.288037
     8  C   -0.252873
     9  C    0.049785
    10  N   -0.497423
    11  C    0.709621
    12  N   -0.560499
    13  N   -0.802619
    14  C    0.293864
    15  C    0.104001
    16  C   -0.233836
    17  C   -0.173730
    18  C    0.274326
    19  C   -0.226095
    20  N   -0.719700
    21  C    0.531311
    22  C    0.018621
    23  C   -0.162779
    24  C   -0.221071
    25  C    0.155344
    26  C   -0.223331
    27  C   -0.182961
    28  C   -0.264795
    29  N   -0.381737
    30  C   -0.183406
    31  C   -0.182482
    32  N   -0.392342
    33  C   -0.351252
    34  C   -0.183168
    35  C   -0.185167
    36  O   -0.501947
    37  C   -0.610874
    38  H    0.182801
    39  H    0.182602
    40  H    0.196352
    41  H    0.183067
    42  H    0.180747
    43  H    0.188109
    44  H    0.369605
    45  H    0.194212
    46  H    0.169916
    47  H    0.207909
    48  H    0.364680
    49  H    0.184759
    50  H    0.161623
    51  H    0.162481
    52  H    0.192882
    53  H    0.170450
    54  H    0.169583
    55  H    0.154724
    56  H    0.158950
    57  H    0.148886
    58  H    0.174403
    59  H    0.141369
    60  H    0.164700
    61  H    0.169098
    62  H    0.154432
    63  H    0.170228
    64  H    0.159996
    65  H    0.157339
    66  H    0.174695
    67  H    0.184505
    68  H    0.198274
 Sum of Mulliken atomic charges =   0.00000

 Dipole moment (field-independent basis, Debye):
    X=              1.3174    Y=             -5.2670    Z=              2.0729  Tot=              5.8115
 Quadrupole moment (field-independent basis, Debye-Ang):
   XX=           -168.0130   YY=           -227.6489   ZZ=           -213.8024
   XY=             -1.7201   XZ=             17.3953   YZ=              2.1642

 Normal termination of Gaussian 09 at Wed Mar  4 08:55:32 2020.
