                               Psi4 1.3.2 release

  ==> Input File <==

--------------------------------------------------------------------------
molecule {
0 1
 C    0.082945    4.912143   -0.110034
 C    1.443827    4.638165   -0.303946
 C    1.965294    3.375264    0.041573
 C    1.038218    2.457503    0.594215
 N   -0.263150    2.702036    0.786951
 C   -0.726941    3.910167    0.436127
 C    3.410169    2.988267   -0.152186
 C    4.419914    3.828418   -0.649391
 C    5.692230    3.255042   -0.753027
 N    5.978977    1.997773   -0.428375
 C    4.943693    1.261398    0.024871
 N    3.695682    1.712178    0.173065
 N    5.245561   -0.046623    0.345282
 C    4.492757   -1.272485    0.281108
 C    5.188626   -2.517839    0.343808
 C    4.416505   -3.688977    0.272208
 C    3.022765   -3.697217    0.149341
 C    2.352768   -2.469753    0.104590
 C    3.096904   -1.279056    0.158804
 N    0.935657   -2.299589   -0.024810
 C   -0.062088   -3.211226   -0.279531
 C   -1.438644   -2.677180   -0.623468
 C   -1.645908   -1.507015   -1.372150
 C   -2.941469   -1.059042   -1.640369
 C   -4.071546   -1.767795   -1.190704
 C   -3.848624   -2.939691   -0.442363
 C   -2.556967   -3.397612   -0.172926
 C   -5.488419   -1.253275   -1.450413
 N   -6.069158   -0.238558   -0.552306
 C   -5.602639    1.162723   -0.651175
 C   -4.483560    1.553929    0.347819
 N   -4.797624    1.243260    1.761498
 C   -5.637869    2.212069    2.475268
 C   -5.197562   -0.181149    1.861250
 C   -6.308006   -0.602506    0.863609
 O    0.121970   -4.416464   -0.218296
 C    6.698786   -2.629315    0.466603
 H   -0.340838    5.876205   -0.375403
 H    2.068086    5.417128   -0.734415
 H    1.369937    1.475192    0.914883
 H   -1.789004    4.077777    0.606673
 H    4.264255    4.861056   -0.936673
 H    6.531675    3.843782   -1.122176
 H    6.221784   -0.115919    0.591375
 H    4.913668   -4.657661    0.309804
 H    2.466618   -4.625177    0.093843
 H    2.588874   -0.328119    0.110327
 H    0.628165   -1.337447    0.008194
 H   -0.788860   -0.950957   -1.744000
 H   -3.068970   -0.142242   -2.216290
 H   -4.693927   -3.511726   -0.060357
 H   -2.394734   -4.308935    0.397200
 H   -5.522872   -0.834406   -2.466796
 H   -6.174838   -2.112642   -1.433047
 H   -5.363351    1.406878   -1.642759
 H   -6.844016    2.077645   -0.254154
 H   -4.270736    2.997781    0.222249
 H   -3.425804    0.987700    0.064538
 H   -6.646334    2.249582    2.048120
 H   -5.192426    3.211978    2.420490
 H   -5.713653    1.937002    3.533524
 H   -5.471480   -0.413673    2.898655
 H   -3.964821   -1.004528    1.522793
 H   -7.599264    0.171678    1.324418
 H   -6.542477   -1.713958    0.952713
 H    7.052549   -2.229427    1.427389
 H    7.209410   -2.072521   -0.331667
 H    7.059757   -3.665188    0.404134
}
memory 20GB
set_num_threads(6)
psi4_io.set_default_path("/scratch/bdw2292")
set freeze_core True
E, wfn = energy('mp2/6-311++G**',return_wfn=True)
oeprop(wfn,"WIBERG_LOWDIN_INDICES")
clean()
--------------------------------------------------------------------------

    Molecular point group: c1

    Geometry (in Angstrom), charge = 0, multiplicity = 1:

       Center              X                  Y                   Z               Mass
    ------------   -----------------  -----------------  -----------------  -----------------
         C           -0.041726456628     4.912493720520    -0.141481622487    12.000000000000
         C            1.319155543372     4.638515720520    -0.335393622487    12.000000000000
         C            1.840622543372     3.375614720520     0.010125377513    12.000000000000
         C            0.913546543372     2.457853720520     0.562767377513    12.000000000000
         N           -0.387821456628     2.702386720520     0.755503377513    14.003074004430
         C           -0.851612456628     3.910517720520     0.404679377513    12.000000000000
         C            3.285497543372     2.988617720520    -0.183633622487    12.000000000000
         C            4.295242543372     3.828768720520    -0.680838622487    12.000000000000
         C            5.567558543372     3.255392720520    -0.784474622487    12.000000000000
         N            5.854305543372     1.998123720520    -0.459822622487    14.003074004430
         C            4.819021543372     1.261748720520    -0.006576622487    12.000000000000
         N            3.571010543372     1.712528720520     0.141617377513    14.003074004430
         N            5.120889543372    -0.046272279480     0.313834377513    14.003074004430
         C            4.368085543372    -1.272134279480     0.249660377513    12.000000000000
         C            5.063954543372    -2.517488279480     0.312360377513    12.000000000000
         C            4.291833543372    -3.688626279480     0.240760377513    12.000000000000
         C            2.898093543372    -3.696866279480     0.117893377513    12.000000000000
         C            2.228096543372    -2.469402279480     0.073142377513    12.000000000000
         C            2.972232543372    -1.278705279480     0.127356377513    12.000000000000
         N            0.810985543372    -2.299238279480    -0.056257622487    14.003074004430
         C           -0.186759456628    -3.210875279480    -0.310978622487    12.000000000000
         C           -1.563315456628    -2.676829279480    -0.654915622487    12.000000000000
         C           -1.770579456628    -1.506664279480    -1.403597622487    12.000000000000
         C           -3.066140456628    -1.058691279480    -1.671816622487    12.000000000000
         C           -4.196217456628    -1.767444279480    -1.222151622487    12.000000000000
         C           -3.973295456628    -2.939340279480    -0.473810622487    12.000000000000
         C           -2.681638456628    -3.397261279480    -0.204373622487    12.000000000000
         C           -5.613090456628    -1.252924279480    -1.481860622487    12.000000000000
         N           -6.193829456628    -0.238207279480    -0.583753622487    14.003074004430
         C           -5.727310456628     1.163073720520    -0.682622622487    12.000000000000
         C           -4.608231456628     1.554279720520     0.316371377513    12.000000000000
         N           -4.922295456628     1.243610720520     1.730050377513    14.003074004430
         C           -5.762540456628     2.212419720520     2.443820377513    12.000000000000
         C           -5.322233456628    -0.180798279480     1.829802377513    12.000000000000
         C           -6.432677456628    -0.602155279480     0.832161377513    12.000000000000
         O           -0.002701456628    -4.416113279480    -0.249743622487    15.994914619570
         C            6.574114543372    -2.628964279480     0.435155377513    12.000000000000
         H           -0.465509456628     5.876555720520    -0.406850622487     1.007825032230
         H            1.943414543372     5.417478720520    -0.765862622487     1.007825032230
         H            1.245265543372     1.475542720520     0.883435377513     1.007825032230
         H           -1.913675456628     4.078127720520     0.575225377513     1.007825032230
         H            4.139583543372     4.861406720520    -0.968120622487     1.007825032230
         H            6.407003543372     3.844132720520    -1.153623622487     1.007825032230
         H            6.097112543372    -0.115568279480     0.559927377513     1.007825032230
         H            4.788996543372    -4.657310279480     0.278356377513     1.007825032230
         H            2.341946543372    -4.624826279480     0.062395377513     1.007825032230
         H            2.464202543372    -0.327768279480     0.078879377513     1.007825032230
         H            0.503493543372    -1.337096279480    -0.023253622487     1.007825032230
         H           -0.913531456628    -0.950606279480    -1.775447622487     1.007825032230
         H           -3.193641456628    -0.141891279480    -2.247737622487     1.007825032230
         H           -4.818598456628    -3.511375279480    -0.091804622487     1.007825032230
         H           -2.519405456628    -4.308584279480     0.365752377513     1.007825032230
         H           -5.647543456628    -0.834055279480    -2.498243622487     1.007825032230
         H           -6.299509456628    -2.112291279480    -1.464494622487     1.007825032230
         H           -5.488022456628     1.407228720520    -1.674206622487     1.007825032230
         H           -6.968687456628     2.077995720520    -0.285601622487     1.007825032230
         H           -4.395407456628     2.998131720520     0.190801377513     1.007825032230
         H           -3.550475456628     0.988050720520     0.033090377513     1.007825032230
         H           -6.771005456628     2.249932720520     2.016672377513     1.007825032230
         H           -5.317097456628     3.212328720520     2.389042377513     1.007825032230
         H           -5.838324456628     1.937352720520     3.502076377513     1.007825032230
         H           -5.596151456628    -0.413322279480     2.867207377513     1.007825032230
         H           -4.089492456628    -1.004177279480     1.491345377513     1.007825032230
         H           -7.723935456628     0.172028720520     1.292970377513     1.007825032230
         H           -6.667148456628    -1.713607279480     0.921265377513     1.007825032230
         H            6.927877543372    -2.229076279480     1.395941377513     1.007825032230
         H            7.084738543372    -2.072170279480    -0.363114622487     1.007825032230
         H            6.935085543372    -3.664837279480     0.372686377513     1.007825032230

  Charge       = 0
  Multiplicity = 1
  Basis Set: 6-311++G**
    Blend: 6-311++G**
  Basis Set: (6-311++G** AUX)
    Blend: AUG-CC-PVTZ-JKFIT

    Orbital Energies [Eh]
    ---------------------

    Doubly Occupied:

       1A    -20.523201     2A    -15.603298     3A    -15.596967
       4A    -15.580204     5A    -15.575590     6A    -15.574182
       7A    -15.570595     8A    -15.556316     9A    -11.372105
      10A    -11.366186    11A    -11.332827    12A    -11.315007
      13A    -11.312824    14A    -11.310003    15A    -11.306300
      16A    -11.301510    17A    -11.301149    18A    -11.295366
      19A    -11.295292    20A    -11.293269    21A    -11.285594
      22A    -11.283384    23A    -11.276530    24A    -11.261971
      25A    -11.261855    26A    -11.261337    27A    -11.260481
      28A    -11.253769    29A    -11.253423    30A    -11.252458
      31A    -11.250009    32A    -11.245790    33A    -11.245306
      34A    -11.239006    35A    -11.233974    36A    -11.230694
      37A    -11.223208    38A     -1.389080    39A     -1.344621
      40A     -1.273165    41A     -1.251252    42A     -1.248724
      43A     -1.240816    44A     -1.209675    45A     -1.202776
      46A     -1.166514    47A     -1.139159    48A     -1.112281
      49A     -1.073404    50A     -1.062551    51A     -1.045668
      52A     -1.037961    53A     -1.029098    54A     -1.006871
      55A     -1.002659    56A     -0.980537    57A     -0.946558
      58A     -0.929606    59A     -0.924156    60A     -0.899480
      61A     -0.869244    62A     -0.868733    63A     -0.855340
      64A     -0.851066    65A     -0.842013    66A     -0.835698
      67A     -0.824487    68A     -0.808087    69A     -0.779281
      70A     -0.753233    71A     -0.738415    72A     -0.731901
      73A     -0.719003    74A     -0.708883    75A     -0.701289
      76A     -0.683413    77A     -0.681152    78A     -0.666244
      79A     -0.662360    80A     -0.655433    81A     -0.652243
      82A     -0.650346    83A     -0.637919    84A     -0.634821
      85A     -0.626177    86A     -0.618593    87A     -0.611606
      88A     -0.609141    89A     -0.608115    90A     -0.604487
      91A     -0.599934    92A     -0.598698    93A     -0.595731
      94A     -0.589319    95A     -0.587593    96A     -0.581420
      97A     -0.578834    98A     -0.577294    99A     -0.567597
     100A     -0.556098   101A     -0.547160   102A     -0.541021
     103A     -0.538754   104A     -0.532964   105A     -0.529649
     106A     -0.523107   107A     -0.512427   108A     -0.509472
     109A     -0.508382   110A     -0.507897   111A     -0.500402
     112A     -0.493545   113A     -0.484295   114A     -0.479602
     115A     -0.460876   116A     -0.450264   117A     -0.436516
     118A     -0.430964   119A     -0.425829   120A     -0.422457
     121A     -0.413678   122A     -0.396799   123A     -0.393019
     124A     -0.380585   125A     -0.373388   126A     -0.350388
     127A     -0.346616   128A     -0.342956   129A     -0.315448
     130A     -0.312345   131A     -0.289340

  @DF-RHF Final Energy: -1572.31884011059560

   => Energetics <=

    Nuclear Repulsion Energy =           3742.3881569857717295
    One-Electron Energy =               -9582.8360627319871128
    Two-Electron Energy =                4268.1290656356204636
    Total Energy =                      -1572.3188401105953744

  Dipole Moment: [D]
     X:     0.9533      Y:     5.8969      Z:    -1.4119     Total:     6.1380

  Basis Set: (6-311++G** AUX)
    Blend: AUG-CC-PVTZ-RI
	 Reference Energy          =   -1572.3188401105956018 [Eh]
	 Singles Energy            =      -0.0000000000000000 [Eh]
	 Same-Spin Energy          =      -1.4707976895734163 [Eh]
	 Opposite-Spin Energy      =      -4.0481896869045144 [Eh]
	 Correlation Energy        =      -5.5189873764779307 [Eh]
	 Total Energy              =   -1577.8378274870735822 [Eh]

	 ================> DF-SCS-MP2 Energies <==================
	-----------------------------------------------------------
	 SCS Same-Spin Scale       =       0.3333333333333333 [-]
	 SCS Opposite-Spin Scale   =       1.2000000000000000 [-]
	 SCS Same-Spin Energy      =      -0.4902658965244721 [Eh]
	 SCS Opposite-Spin Energy  =      -4.8578276242854175 [Eh]
	 SCS Correlation Energy    =      -5.3480935208098899 [Eh]
	 SCS Total Energy          =   -1577.6669336314055272 [Eh]
	-----------------------------------------------------------

*** Psi4 exiting successfully. Buy a developer a beer!
