                               Psi4 1.3.2 release

  ==> Input File <==

--------------------------------------------------------------------------
molecule {
0 1
 C    0.614568    4.294309   -0.197962
 C   -0.769219    4.272589    0.028110
 C   -1.463493    3.046380    0.024964
 C   -0.671296    1.898282   -0.224864
 N    0.648075    1.896904   -0.444128
 C    1.276980    3.082743   -0.429757
 C   -2.956681    2.925643    0.215685
 C   -3.855129    3.994964    0.359199
 C   -5.207912    3.643718    0.442055
 N   -5.669107    2.396154    0.398172
 C   -4.733263    1.431194    0.282904
 N   -3.420053    1.660677    0.207958
 N   -5.211034    0.128781    0.239308
 C   -4.563476   -1.151736    0.062137
 C   -5.339396   -2.299913   -0.281579
 C   -4.643129   -3.502238   -0.498167
 C   -3.253689   -3.635403   -0.381678
 C   -2.514202   -2.514177    0.007213
 C   -3.180722   -1.298218    0.222123
 N   -1.099206   -2.466605    0.223178
 C   -0.093378   -3.326769   -0.149322
 C    1.330602   -2.894370    0.150870
 C    1.672555   -2.123269    1.275308
 C    3.002021   -1.773925    1.520425
 C    4.030018   -2.140155    0.632887
 C    3.673277   -2.905936   -0.494583
 C    2.354370   -3.311184   -0.714939
 C    5.483346   -1.740386    0.891845
 N    5.959115   -0.409301    0.479340
 C    5.613105    0.769893    1.303287
 C    4.440688    1.635985    0.781307
 N    4.550809    2.033849   -0.639796
 C    5.425588    3.174841   -0.941689
 C    4.789240    0.811511   -1.448791
 C    5.974363   -0.063646   -0.959572
 O   -0.309485   -4.387478   -0.713354
 C   -6.845327   -2.261808   -0.475682
 H    1.169011    5.228060   -0.206014
 H   -1.278197    5.218339    0.197714
 H   -1.136230    0.921286   -0.288058
 H    2.347313    3.057120   -0.624979
 H   -3.559782    5.036980    0.369026
 H   -5.969031    4.417968    0.535667
 H   -6.216985    0.103384    0.314137
 H   -5.199439   -4.392098   -0.790463
 H   -2.754781   -4.579990   -0.560815
 H   -2.616359   -0.429647    0.519054
 H   -0.766347   -1.552806    0.496930
 H    0.898423   -1.828397    1.979477
 H    3.234745   -1.191801    2.412060
 H    4.439655   -3.227301   -1.199570
 H    2.091627   -3.923645   -1.573828
 H    5.681820   -1.829116    1.970038
 H    6.128469   -2.478120    0.392306
 H    5.448695    0.462216    2.401137
 H    6.874389    1.723215    1.280580
 H    4.303870    2.607891    1.453531
 H    3.190428    0.822769    0.902252
 H    6.470634    2.945273   -0.705295
 H    5.117089    4.050550   -0.358957
 H    5.352358    3.435568   -2.003754
 H    4.883964    1.078788   -2.492941
 H    3.493849   -0.083473   -1.303759
 H    7.254446    0.765756   -1.218035
 H    6.058479   -1.091141   -1.646746
 H   -7.133941   -1.519768   -1.233584
 H   -7.363124   -1.999458    0.457799
 H   -7.259791   -3.224199   -0.806572
}
memory 20GB
set_num_threads(6)
psi4_io.set_default_path("/scratch/bdw2292")
set freeze_core True
E, wfn = energy('mp2/6-311++G**',return_wfn=True)
oeprop(wfn,"WIBERG_LOWDIN_INDICES")
clean()
--------------------------------------------------------------------------

    Molecular point group: c1

    Geometry (in Angstrom), charge = 0, multiplicity = 1:

       Center              X                  Y                   Z               Mass
    ------------   -----------------  -----------------  -----------------  -----------------
         C            0.687172852426     4.318103532775    -0.209652742011    12.000000000000
         C           -0.696614147574     4.296383532775     0.016419257989    12.000000000000
         C           -1.390888147574     3.070174532775     0.013273257989    12.000000000000
         C           -0.598691147574     1.922076532775    -0.236554742011    12.000000000000
         N            0.720679852426     1.920698532775    -0.455818742011    14.003074004430
         C            1.349584852426     3.106537532775    -0.441447742011    12.000000000000
         C           -2.884076147574     2.949437532775     0.203994257989    12.000000000000
         C           -3.782524147574     4.018758532775     0.347508257989    12.000000000000
         C           -5.135307147574     3.667512532775     0.430364257989    12.000000000000
         N           -5.596502147574     2.419948532775     0.386481257989    14.003074004430
         C           -4.660658147574     1.454988532775     0.271213257989    12.000000000000
         N           -3.347448147574     1.684471532775     0.196267257989    14.003074004430
         N           -5.138429147574     0.152575532775     0.227617257989    14.003074004430
         C           -4.490871147574    -1.127941467225     0.050446257989    12.000000000000
         C           -5.266791147574    -2.276118467225    -0.293269742011    12.000000000000
         C           -4.570524147574    -3.478443467225    -0.509857742011    12.000000000000
         C           -3.181084147574    -3.611608467225    -0.393368742011    12.000000000000
         C           -2.441597147574    -2.490382467225    -0.004477742011    12.000000000000
         C           -3.108117147574    -1.274423467225     0.210432257989    12.000000000000
         N           -1.026601147574    -2.442810467225     0.211487257989    14.003074004430
         C           -0.020773147574    -3.302974467225    -0.161012742011    12.000000000000
         C            1.403206852426    -2.870575467225     0.139179257989    12.000000000000
         C            1.745159852426    -2.099474467225     1.263617257989    12.000000000000
         C            3.074625852426    -1.750130467225     1.508734257989    12.000000000000
         C            4.102622852426    -2.116360467225     0.621196257989    12.000000000000
         C            3.745881852426    -2.882141467225    -0.506273742011    12.000000000000
         C            2.426974852426    -3.287389467225    -0.726629742011    12.000000000000
         C            5.555950852426    -1.716591467225     0.880154257989    12.000000000000
         N            6.031719852426    -0.385506467225     0.467649257989    14.003074004430
         C            5.685709852426     0.793687532775     1.291596257989    12.000000000000
         C            4.513292852426     1.659779532775     0.769616257989    12.000000000000
         N            4.623413852426     2.057643532775    -0.651486742011    14.003074004430
         C            5.498192852426     3.198635532775    -0.953379742011    12.000000000000
         C            4.861844852426     0.835305532775    -1.460481742011    12.000000000000
         C            6.046967852426    -0.039851467225    -0.971262742011    12.000000000000
         O           -0.236880147574    -4.363683467225    -0.725044742011    15.994914619570
         C           -6.772722147574    -2.238013467225    -0.487372742011    12.000000000000
         H            1.241615852426     5.251854532775    -0.217704742011     1.007825032230
         H           -1.205592147574     5.242133532775     0.186023257989     1.007825032230
         H           -1.063625147574     0.945080532775    -0.299748742011     1.007825032230
         H            2.419917852426     3.080914532775    -0.636669742011     1.007825032230
         H           -3.487177147574     5.060774532775     0.357335257989     1.007825032230
         H           -5.896426147574     4.441762532775     0.523976257989     1.007825032230
         H           -6.144380147574     0.127178532775     0.302446257989     1.007825032230
         H           -5.126834147574    -4.368303467225    -0.802153742011     1.007825032230
         H           -2.682176147574    -4.556195467225    -0.572505742011     1.007825032230
         H           -2.543754147574    -0.405852467225     0.507363257989     1.007825032230
         H           -0.693742147574    -1.529011467225     0.485239257989     1.007825032230
         H            0.971027852426    -1.804602467225     1.967786257989     1.007825032230
         H            3.307349852426    -1.168006467225     2.400369257989     1.007825032230
         H            4.512259852426    -3.203506467225    -1.211260742011     1.007825032230
         H            2.164231852426    -3.899850467225    -1.585518742011     1.007825032230
         H            5.754424852426    -1.805321467225     1.958347257989     1.007825032230
         H            6.201073852426    -2.454325467225     0.380615257989     1.007825032230
         H            5.521299852426     0.486010532775     2.389446257989     1.007825032230
         H            6.946993852426     1.747009532775     1.268889257989     1.007825032230
         H            4.376474852426     2.631685532775     1.441840257989     1.007825032230
         H            3.263032852426     0.846563532775     0.890561257989     1.007825032230
         H            6.543238852426     2.969067532775    -0.716985742011     1.007825032230
         H            5.189693852426     4.074344532775    -0.370647742011     1.007825032230
         H            5.424962852426     3.459362532775    -2.015444742011     1.007825032230
         H            4.956568852426     1.102582532775    -2.504631742011     1.007825032230
         H            3.566453852426    -0.059678467225    -1.315449742011     1.007825032230
         H            7.327050852426     0.789550532775    -1.229725742011     1.007825032230
         H            6.131083852426    -1.067346467225    -1.658436742011     1.007825032230
         H           -7.061336147574    -1.495973467225    -1.245274742011     1.007825032230
         H           -7.290519147574    -1.975663467225     0.446108257989     1.007825032230
         H           -7.187186147574    -3.200404467225    -0.818262742011     1.007825032230

  Charge       = 0
  Multiplicity = 1
  Basis Set: 6-311++G**
    Blend: 6-311++G**
  Basis Set: (6-311++G** AUX)
    Blend: AUG-CC-PVTZ-JKFIT

    Orbital Energies [Eh]
    ---------------------

    Doubly Occupied:

       1A    -20.521487     2A    -15.601454     3A    -15.601146
       4A    -15.576450     5A    -15.572760     6A    -15.570212
       7A    -15.567371     8A    -15.564062     9A    -11.372021
      10A    -11.364223    11A    -11.329481    12A    -11.326316
      13A    -11.321473    14A    -11.310190    15A    -11.309917
      16A    -11.304228    17A    -11.299540    18A    -11.291211
      19A    -11.289688    20A    -11.283432    21A    -11.281964
      22A    -11.279957    23A    -11.270462    24A    -11.259042
      25A    -11.258997    26A    -11.257905    27A    -11.256913
      28A    -11.253468    29A    -11.251049    30A    -11.248826
      31A    -11.247745    32A    -11.247418    33A    -11.246364
      34A    -11.239173    35A    -11.234398    36A    -11.228533
      37A    -11.224826    38A     -1.386841    39A     -1.340286
      40A     -1.265727    41A     -1.251360    42A     -1.250554
      43A     -1.238060    44A     -1.209046    45A     -1.205039
      46A     -1.163727    47A     -1.138011    48A     -1.106570
      49A     -1.069110    50A     -1.060102    51A     -1.040051
      52A     -1.036734    53A     -1.025763    54A     -1.005840
      55A     -1.001297    56A     -0.982068    57A     -0.947970
      58A     -0.931609    59A     -0.918714    60A     -0.895980
      61A     -0.868564    62A     -0.863703    63A     -0.851172
      64A     -0.849012    65A     -0.838630    66A     -0.837218
      67A     -0.823121    68A     -0.806632    69A     -0.776152
      70A     -0.750093    71A     -0.735653    72A     -0.728266
      73A     -0.714576    74A     -0.703051    75A     -0.692544
      76A     -0.677844    77A     -0.676004    78A     -0.660895
      79A     -0.659717    80A     -0.652988    81A     -0.650350
      82A     -0.646788    83A     -0.637361    84A     -0.630367
      85A     -0.626332    86A     -0.619882    87A     -0.618314
      88A     -0.610389    89A     -0.607594    90A     -0.602794
      91A     -0.598134    92A     -0.595899    93A     -0.594366
      94A     -0.588328    95A     -0.583722    96A     -0.579311
      97A     -0.577452    98A     -0.575930    99A     -0.567880
     100A     -0.550907   101A     -0.546872   102A     -0.543526
     103A     -0.533224   104A     -0.531112   105A     -0.526379
     106A     -0.520948   107A     -0.511458   108A     -0.510544
     109A     -0.505125   110A     -0.503695   111A     -0.498515
     112A     -0.490318   113A     -0.482271   114A     -0.479855
     115A     -0.478185   116A     -0.446453   117A     -0.433267
     118A     -0.429555   119A     -0.427334   120A     -0.424071
     121A     -0.408471   122A     -0.391763   123A     -0.385935
     124A     -0.380303   125A     -0.367873   126A     -0.348527
     127A     -0.344100   128A     -0.337671   129A     -0.315443
     130A     -0.312185   131A     -0.289030

  @DF-RHF Final Energy: -1572.30527484833488

   => Energetics <=

    Nuclear Repulsion Energy =           3801.3164585148506376
    One-Electron Energy =               -9701.1112744437705260
    Two-Electron Energy =                4327.4895410805847860
    Total Energy =                      -1572.3052748483351024

  Dipole Moment: [D]
     X:     0.4861      Y:     6.0473      Z:     1.3282     Total:     6.2105

  Basis Set: (6-311++G** AUX)
    Blend: AUG-CC-PVTZ-RI
	 Reference Energy          =   -1572.3052748483348751 [Eh]
	 Singles Energy            =      -0.0000000000000000 [Eh]
	 Same-Spin Energy          =      -1.4741150548077779 [Eh]
	 Opposite-Spin Energy      =      -4.0542956176806824 [Eh]
	 Correlation Energy        =      -5.5284106724884605 [Eh]
	 Total Energy              =   -1577.8336855208233374 [Eh]

	 ================> DF-SCS-MP2 Energies <==================
	-----------------------------------------------------------
	 SCS Same-Spin Scale       =       0.3333333333333333 [-]
	 SCS Opposite-Spin Scale   =       1.2000000000000000 [-]
	 SCS Same-Spin Energy      =      -0.4913716849359260 [Eh]
	 SCS Opposite-Spin Energy  =      -4.8651547412168190 [Eh]
	 SCS Correlation Energy    =      -5.3565264261527448 [Eh]
	 SCS Total Energy          =   -1577.6618012744875159 [Eh]
	-----------------------------------------------------------

*** Psi4 exiting successfully. Buy a developer a beer!
