                               Psi4 1.3.2 release

  ==> Input File <==

--------------------------------------------------------------------------
molecule {
0 1
 C    0.113635    4.481811   -0.628642
 C    1.484110    4.412610   -0.343276
 C    2.139366    3.166140   -0.348412
 C    1.338555    2.048529   -0.690696
 N    0.029615    2.094564   -0.969761
 C   -0.566744    3.296253   -0.930096
 C    3.600624    2.982438   -0.024642
 C    4.536253    4.014562    0.153909
 C    5.849758    3.607061    0.419967
 N    6.236890    2.336937    0.525156
 C    5.268600    1.413419    0.360261
 N    3.994674    1.702343    0.093739
 N    5.663870    0.093780    0.486528
 C    4.980001   -1.157037    0.265979
 C    5.736022   -2.343765    0.024686
 C    5.017546   -3.527396   -0.215495
 C    3.619679   -3.604954   -0.233743
 C    2.888325   -2.443232    0.035284
 C    3.582005   -1.249046    0.286951
 N    1.459294   -2.337398    0.059330
 C    0.466630   -3.229383   -0.277735
 C   -0.958640   -2.706830   -0.329387
 C   -1.296145   -1.375123   -0.628256
 C   -2.630003   -0.960649   -0.612074
 C   -3.678277   -1.854948   -0.322170
 C   -3.329602   -3.197117   -0.073966
 C   -1.997869   -3.620166   -0.083698
 C   -5.137373   -1.391210   -0.314338
 N   -5.401427   -0.074480    0.297287
 C   -6.045919   -0.043019    1.625876
 C   -7.593398   -0.000126    1.550350
 N   -8.127112    1.101207    0.708898
 C   -8.242674    2.414474    1.354620
 C   -7.458311    1.074961   -0.617169
 C   -5.910704    1.030448   -0.542503
 O    0.700891   -4.405500   -0.512458
 C    7.254861   -2.370216   -0.005108
 H   -0.415229    5.430231   -0.616890
 H    2.012454    5.330236   -0.096057
 H    1.780287    1.059600   -0.767297
 H   -1.631236    3.297952   -1.159523
 H    4.307928    5.070407    0.075276
 H    6.656570    4.326387    0.558152
 H    6.660313    0.055588    0.639735
 H    5.565995   -4.447708   -0.412208
 H    3.103421   -4.533198   -0.443985
 H    3.021796   -0.356864    0.513111
 H    1.120953   -1.423181    0.323377
 H   -0.516250   -0.656286   -0.870114
 H   -2.849191    0.083016   -0.833426
 H   -4.108111   -3.931787    0.130535
 H   -1.744503   -4.659387    0.110900
 H   -5.514497   -1.315131   -1.343386
 H   -5.728008   -2.183090    0.165317
 H   -5.622834   -1.164959    2.385740
 H   -5.588976    1.101674    2.304315
 H   -8.070706    0.062995    2.634307
 H   -8.056056   -1.271008    0.933333
 H   -7.254430    2.811549    1.613990
 H   -8.842323    2.335050    2.268785
 H   -8.744138    3.122664    0.684997
 H   -7.828322    1.995575   -1.263787
 H   -7.917699   -0.166877   -1.304047
 H   -5.439931    2.267435    0.020296
 H   -5.355389    0.933829   -1.851844
 H    7.703191   -2.057501    0.948765
 H    7.643770   -1.702408   -0.778973
 H    7.654857   -3.364589   -0.219768
}
memory 20GB
set_num_threads(6)
psi4_io.set_default_path("/scratch/bdw2292")
set freeze_core True
E, wfn = energy('mp2/6-311+G*',return_wfn=True)
oeprop(wfn,"WIBERG_LOWDIN_INDICES")
clean()
--------------------------------------------------------------------------

    Molecular point group: c1

    Geometry (in Angstrom), charge = 0, multiplicity = 1:

       Center              X                  Y                   Z               Mass
    ------------   -----------------  -----------------  -----------------  -----------------
         C           -0.002383085913     4.500246982602    -0.627192121627    12.000000000000
         C            1.368091914087     4.431045982602    -0.341826121627    12.000000000000
         C            2.023347914087     3.184575982602    -0.346962121627    12.000000000000
         C            1.222536914087     2.066964982602    -0.689246121627    12.000000000000
         N           -0.086403085913     2.112999982602    -0.968311121627    14.003074004430
         C           -0.682762085913     3.314688982602    -0.928646121627    12.000000000000
         C            3.484605914087     3.000873982602    -0.023192121627    12.000000000000
         C            4.420234914087     4.032997982602     0.155358878373    12.000000000000
         C            5.733739914087     3.625496982602     0.421416878373    12.000000000000
         N            6.120871914087     2.355372982602     0.526605878373    14.003074004430
         C            5.152581914087     1.431854982602     0.361710878373    12.000000000000
         N            3.878655914087     1.720778982602     0.095188878373    14.003074004430
         N            5.547851914087     0.112215982602     0.487977878373    14.003074004430
         C            4.863982914087    -1.138601017398     0.267428878373    12.000000000000
         C            5.620003914087    -2.325329017398     0.026135878373    12.000000000000
         C            4.901527914087    -3.508960017398    -0.214045121627    12.000000000000
         C            3.503660914087    -3.586518017398    -0.232293121627    12.000000000000
         C            2.772306914087    -2.424796017398     0.036733878373    12.000000000000
         C            3.465986914087    -1.230610017398     0.288400878373    12.000000000000
         N            1.343275914087    -2.318962017398     0.060779878373    14.003074004430
         C            0.350611914087    -3.210947017398    -0.276285121627    12.000000000000
         C           -1.074658085913    -2.688394017398    -0.327937121627    12.000000000000
         C           -1.412163085913    -1.356687017398    -0.626806121627    12.000000000000
         C           -2.746021085913    -0.942213017398    -0.610624121627    12.000000000000
         C           -3.794295085913    -1.836512017398    -0.320720121627    12.000000000000
         C           -3.445620085913    -3.178681017398    -0.072516121627    12.000000000000
         C           -2.113887085913    -3.601730017398    -0.082248121627    12.000000000000
         C           -5.253391085913    -1.372774017398    -0.312888121627    12.000000000000
         N           -5.517445085913    -0.056044017398     0.298736878373    14.003074004430
         C           -6.161937085913    -0.024583017398     1.627325878373    12.000000000000
         C           -7.709416085913     0.018309982602     1.551799878373    12.000000000000
         N           -8.243130085913     1.119642982602     0.710347878373    14.003074004430
         C           -8.358692085913     2.432909982602     1.356069878373    12.000000000000
         C           -7.574329085913     1.093396982602    -0.615719121627    12.000000000000
         C           -6.026722085913     1.048883982602    -0.541053121627    12.000000000000
         O            0.584872914087    -4.387064017398    -0.511008121627    15.994914619570
         C            7.138842914087    -2.351780017398    -0.003658121627    12.000000000000
         H           -0.531247085913     5.448666982602    -0.615440121627     1.007825032230
         H            1.896435914087     5.348671982602    -0.094607121627     1.007825032230
         H            1.664268914087     1.078035982602    -0.765847121627     1.007825032230
         H           -1.747254085913     3.316387982602    -1.158073121627     1.007825032230
         H            4.191909914087     5.088842982602     0.076725878373     1.007825032230
         H            6.540551914087     4.344822982602     0.559601878373     1.007825032230
         H            6.544294914087     0.074023982602     0.641184878373     1.007825032230
         H            5.449976914087    -4.429272017398    -0.410758121627     1.007825032230
         H            2.987402914087    -4.514762017398    -0.442535121627     1.007825032230
         H            2.905777914087    -0.338428017398     0.514560878373     1.007825032230
         H            1.004934914087    -1.404745017398     0.324826878373     1.007825032230
         H           -0.632268085913    -0.637850017398    -0.868664121627     1.007825032230
         H           -2.965209085913     0.101451982602    -0.831976121627     1.007825032230
         H           -4.224129085913    -3.913351017398     0.131984878373     1.007825032230
         H           -1.860521085913    -4.640951017398     0.112349878373     1.007825032230
         H           -5.630515085913    -1.296695017398    -1.341936121627     1.007825032230
         H           -5.844026085913    -2.164654017398     0.166766878373     1.007825032230
         H           -5.738852085913    -1.146523017398     2.387189878373     1.007825032230
         H           -5.704994085913     1.120109982602     2.305764878373     1.007825032230
         H           -8.186724085913     0.081430982602     2.635756878373     1.007825032230
         H           -8.172074085913    -1.252572017398     0.934782878373     1.007825032230
         H           -7.370448085913     2.829984982602     1.615439878373     1.007825032230
         H           -8.958341085913     2.353485982602     2.270234878373     1.007825032230
         H           -8.860156085913     3.141099982602     0.686446878373     1.007825032230
         H           -7.944340085913     2.014010982602    -1.262337121627     1.007825032230
         H           -8.033717085913    -0.148441017398    -1.302597121627     1.007825032230
         H           -5.555949085913     2.285870982602     0.021745878373     1.007825032230
         H           -5.471407085913     0.952264982602    -1.850394121627     1.007825032230
         H            7.587172914087    -2.039065017398     0.950214878373     1.007825032230
         H            7.527751914087    -1.683972017398    -0.777523121627     1.007825032230
         H            7.538838914087    -3.346153017398    -0.218318121627     1.007825032230

  Charge       = 0
  Multiplicity = 1
  Basis Set: 6-311+G*
    Blend: 6-311+G*
  Basis Set: (6-311+G* AUX)
    Blend: HEAVY-AUG-CC-PVTZ-JKFIT

    Orbital Energies [Eh]
    ---------------------

    Doubly Occupied:

       1A    -20.515935     2A    -15.602438     3A    -15.598500
       4A    -15.584610     5A    -15.572095     6A    -15.571908
       7A    -15.570738     8A    -15.565913     9A    -11.372559
      10A    -11.360159    11A    -11.340968    12A    -11.333569
      13A    -11.332686    14A    -11.318951    15A    -11.316955
      16A    -11.312973    17A    -11.299747    18A    -11.299382
      19A    -11.298659    20A    -11.290847    21A    -11.288367
      22A    -11.278362    23A    -11.275963    24A    -11.264535
      25A    -11.261697    26A    -11.253450    27A    -11.251643
      28A    -11.249731    29A    -11.246270    30A    -11.245083
      31A    -11.243327    32A    -11.239905    33A    -11.238211
      34A    -11.236310    35A    -11.232666    36A    -11.229519
      37A    -11.223191    38A     -1.381393    39A     -1.343958
      40A     -1.276750    41A     -1.253808    42A     -1.248220
      43A     -1.239573    44A     -1.208230    45A     -1.208123
      46A     -1.155219    47A     -1.137756    48A     -1.114503
      49A     -1.073742    50A     -1.055993    51A     -1.046663
      52A     -1.035768    53A     -1.015325    54A     -1.006097
      55A     -0.998018    56A     -0.978060    57A     -0.947730
      58A     -0.931063    59A     -0.925130    60A     -0.899337
      61A     -0.871210    62A     -0.862123    63A     -0.856570
      64A     -0.838854    65A     -0.833636    66A     -0.827691
      67A     -0.824998    68A     -0.802914    69A     -0.775164
      70A     -0.752898    71A     -0.736920    72A     -0.727768
      73A     -0.720542    74A     -0.704257    75A     -0.692391
      76A     -0.681471    77A     -0.667818    78A     -0.664603
      79A     -0.656409    80A     -0.651053    81A     -0.649673
      82A     -0.644946    83A     -0.635667    84A     -0.627672
      85A     -0.625375    86A     -0.619187    87A     -0.612108
      88A     -0.610002    89A     -0.605915    90A     -0.601588
      91A     -0.597486    92A     -0.594247    93A     -0.591876
      94A     -0.587858    95A     -0.584337    96A     -0.579144
      97A     -0.578858    98A     -0.571892    99A     -0.564775
     100A     -0.559640   101A     -0.547300   102A     -0.543344
     103A     -0.540745   104A     -0.531648   105A     -0.525695
     106A     -0.521357   107A     -0.514047   108A     -0.512320
     109A     -0.507244   110A     -0.501476   111A     -0.494978
     112A     -0.488231   113A     -0.482982   114A     -0.475290
     115A     -0.453312   116A     -0.450033   117A     -0.440752
     118A     -0.437271   119A     -0.423624   120A     -0.422530
     121A     -0.412479   122A     -0.410497   123A     -0.398353
     124A     -0.392086   125A     -0.371411   126A     -0.344304
     127A     -0.338250   128A     -0.331892   129A     -0.325353
     130A     -0.311691   131A     -0.288221

  @DF-RHF Final Energy: -1572.24680320556536

   => Energetics <=

    Nuclear Repulsion Energy =           3642.7705285095780710
    One-Electron Energy =               -9383.7776038376250654
    Two-Electron Energy =                4168.7602721224820925
    Total Energy =                      -1572.2468032055649019

  Dipole Moment: [D]
     X:    -0.7080      Y:     7.9018      Z:     1.0921     Total:     8.0083

  Basis Set: (6-311+G* AUX)
    Blend: HEAVY-AUG-CC-PVTZ-RI
	 Reference Energy          =   -1572.2468032055653566 [Eh]
	 Singles Energy            =      -0.0000000000000000 [Eh]
	 Same-Spin Energy          =      -1.4471595029421205 [Eh]
	 Opposite-Spin Energy      =      -3.8950782540868354 [Eh]
	 Correlation Energy        =      -5.3422377570289559 [Eh]
	 Total Energy              =   -1577.5890409625942539 [Eh]

	 ================> DF-SCS-MP2 Energies <==================
	-----------------------------------------------------------
	 SCS Same-Spin Scale       =       0.3333333333333333 [-]
	 SCS Opposite-Spin Scale   =       1.2000000000000000 [-]
	 SCS Same-Spin Energy      =      -0.4823865009807068 [Eh]
	 SCS Opposite-Spin Energy  =      -4.6740939049042023 [Eh]
	 SCS Correlation Energy    =      -5.1564804058849090 [Eh]
	 SCS Total Energy          =   -1577.4032836114502061 [Eh]
	-----------------------------------------------------------

*** Psi4 exiting successfully. Buy a developer a beer!
