                               Psi4 1.3.2 release

  ==> Input File <==

--------------------------------------------------------------------------
molecule {
0 1
 C   -1.607593    4.915797    0.449304
 C   -2.858476    4.284491    0.443873
 C   -2.940539    2.879709    0.359242
 C   -1.703347    2.192783    0.274009
 N   -0.498002    2.780693    0.270824
 C   -0.462273    4.117919    0.360652
 C   -4.248195    2.126649    0.322914
 C   -5.523809    2.716211    0.330776
 C   -6.603897    1.831217    0.243027
 N   -6.489953    0.509008    0.160977
 C   -5.227713    0.030892    0.171012
 N   -4.131373    0.786711    0.259199
 N   -5.116377   -1.346738    0.101946
 C   -3.987513   -2.235064    0.136155
 C   -4.159626   -3.558140    0.640674
 C   -3.029817   -4.390974    0.628926
 C   -1.765495   -3.989935    0.180082
 C   -1.604560   -2.680158   -0.293062
 C   -2.728725   -1.841013   -0.329749
 N   -0.345435   -2.136718   -0.712702
 C   -0.000829   -1.020462   -1.446342
 C    1.477078   -0.711388   -1.577340
 C    2.465890   -1.697760   -1.721817
 C    3.813320   -1.340869   -1.808924
 C    4.220096    0.005995   -1.761467
 C    3.215352    0.986082   -1.651198
 C    1.864702    0.639128   -1.573912
 C    5.700736    0.387838   -1.797143
 N    6.447081    0.459825   -0.527471
 C    6.793457   -0.801470    0.164764
 C    5.776080   -1.237618    1.249935
 N    5.484339   -0.197432    2.263364
 C    6.441368   -0.067536    3.368214
 C    5.099538    1.056702    1.570470
 C    6.085191    1.504590    0.458565
 O   -0.821714   -0.271370   -1.950087
 C   -5.480569   -4.083957    1.174894
 H   -1.521243    5.996348    0.516535
 H   -3.746628    4.908338    0.507924
 H   -1.692550    1.111599    0.193231
 H    0.529756    4.566946    0.358670
 H   -5.699291    3.783987    0.375391
 H   -7.624778    2.211893    0.231839
 H   -6.031835   -1.771007    0.126279
 H   -3.119964   -5.409098    1.006546
 H   -0.922476   -4.669225    0.226224
 H   -2.625430   -0.836327   -0.709094
 H    0.415647   -2.683241   -0.334516
 H    2.175936   -2.744752   -1.763969
 H    4.558959   -2.130861   -1.900258
 H    3.484665    2.040935   -1.604479
 H    1.097434    1.400843   -1.457789
 H    6.232519   -0.327222   -2.441788
 H    5.793306    1.372380   -2.278253
 H    6.998045   -1.577659   -0.540440
 H    8.138942   -0.538740    0.938274
 H    6.350552   -2.427000    1.943937
 H    4.723705   -1.570371    0.742067
 H    7.418277    0.272305    3.006177
 H    6.566546   -1.031636    3.874201
 H    6.068888    0.651871    4.106483
 H    4.943585    1.887970    2.344161
 H    3.793023    0.803968    0.931341
 H    7.419110    1.892879    1.224280
 H    5.735781    2.420180   -0.056976
 H   -6.226641   -4.178936    0.373365
 H   -5.900504   -3.415205    1.939607
 H   -5.389796   -5.074055    1.642521
}
memory 20GB
set_num_threads(6)
psi4_io.set_default_path("/scratch/bdw2292")
set freeze_core True
E, wfn = energy('mp2/6-311++G**',return_wfn=True)
oeprop(wfn,"WIBERG_LOWDIN_INDICES")
clean()
--------------------------------------------------------------------------

    Molecular point group: c1

    Geometry (in Angstrom), charge = 0, multiplicity = 1:

       Center              X                  Y                   Z               Mass
    ------------   -----------------  -----------------  -----------------  -----------------
         C           -1.510800272159     4.910180532755     0.468227666848    12.000000000000
         C           -2.761683272159     4.278874532755     0.462796666848    12.000000000000
         C           -2.843746272159     2.874092532755     0.378165666848    12.000000000000
         C           -1.606554272159     2.187166532755     0.292932666848    12.000000000000
         N           -0.401209272159     2.775076532755     0.289747666848    14.003074004430
         C           -0.365480272159     4.112302532755     0.379575666848    12.000000000000
         C           -4.151402272159     2.121032532755     0.341837666848    12.000000000000
         C           -5.427016272159     2.710594532755     0.349699666848    12.000000000000
         C           -6.507104272159     1.825600532755     0.261950666848    12.000000000000
         N           -6.393160272159     0.503391532755     0.179900666848    14.003074004430
         C           -5.130920272159     0.025275532755     0.189935666848    12.000000000000
         N           -4.034580272159     0.781094532755     0.278122666848    14.003074004430
         N           -5.019584272159    -1.352354467245     0.120869666848    14.003074004430
         C           -3.890720272159    -2.240680467245     0.155078666848    12.000000000000
         C           -4.062833272159    -3.563756467245     0.659597666848    12.000000000000
         C           -2.933024272159    -4.396590467245     0.647849666848    12.000000000000
         C           -1.668702272159    -3.995551467245     0.199005666848    12.000000000000
         C           -1.507767272159    -2.685774467245    -0.274138333152    12.000000000000
         C           -2.631932272159    -1.846629467245    -0.310825333152    12.000000000000
         N           -0.248642272159    -2.142334467245    -0.693778333152    14.003074004430
         C            0.095963727841    -1.026078467245    -1.427418333152    12.000000000000
         C            1.573870727841    -0.717004467245    -1.558416333152    12.000000000000
         C            2.562682727841    -1.703376467245    -1.702893333152    12.000000000000
         C            3.910112727841    -1.346485467245    -1.790000333152    12.000000000000
         C            4.316888727841     0.000378532755    -1.742543333152    12.000000000000
         C            3.312144727841     0.980465532755    -1.632274333152    12.000000000000
         C            1.961494727841     0.633511532755    -1.554988333152    12.000000000000
         C            5.797528727841     0.382221532755    -1.778219333152    12.000000000000
         N            6.543873727841     0.454208532755    -0.508547333152    14.003074004430
         C            6.890249727841    -0.807086467245     0.183687666848    12.000000000000
         C            5.872872727841    -1.243234467245     1.268858666848    12.000000000000
         N            5.581131727841    -0.203048467245     2.282287666848    14.003074004430
         C            6.538160727841    -0.073152467245     3.387137666848    12.000000000000
         C            5.196330727841     1.051085532755     1.589393666848    12.000000000000
         C            6.181983727841     1.498973532755     0.477488666848    12.000000000000
         O           -0.724921272159    -0.276986467245    -1.931163333152    15.994914619570
         C           -5.383776272159    -4.089573467245     1.193817666848    12.000000000000
         H           -1.424450272159     5.990731532755     0.535458666848     1.007825032230
         H           -3.649835272159     4.902721532755     0.526847666848     1.007825032230
         H           -1.595757272159     1.105982532755     0.212154666848     1.007825032230
         H            0.626548727841     4.561329532755     0.377593666848     1.007825032230
         H           -5.602498272159     3.778370532755     0.394314666848     1.007825032230
         H           -7.527985272159     2.206276532755     0.250762666848     1.007825032230
         H           -5.935042272159    -1.776623467245     0.145202666848     1.007825032230
         H           -3.023171272159    -5.414714467245     1.025469666848     1.007825032230
         H           -0.825683272159    -4.674841467245     0.245147666848     1.007825032230
         H           -2.528637272159    -0.841943467245    -0.690170333152     1.007825032230
         H            0.512439727841    -2.688857467245    -0.315592333152     1.007825032230
         H            2.272728727841    -2.750368467245    -1.745045333152     1.007825032230
         H            4.655751727841    -2.136477467245    -1.881334333152     1.007825032230
         H            3.581457727841     2.035318532755    -1.585555333152     1.007825032230
         H            1.194226727841     1.395226532755    -1.438865333152     1.007825032230
         H            6.329311727841    -0.332838467245    -2.422864333152     1.007825032230
         H            5.890098727841     1.366763532755    -2.259329333152     1.007825032230
         H            7.094837727841    -1.583275467245    -0.521516333152     1.007825032230
         H            8.235734727841    -0.544356467245     0.957197666848     1.007825032230
         H            6.447344727841    -2.432616467245     1.962860666848     1.007825032230
         H            4.820497727841    -1.575987467245     0.760990666848     1.007825032230
         H            7.515069727841     0.266688532755     3.025100666848     1.007825032230
         H            6.663338727841    -1.037252467245     3.893124666848     1.007825032230
         H            6.165680727841     0.646254532755     4.125406666848     1.007825032230
         H            5.040377727841     1.882353532755     2.363084666848     1.007825032230
         H            3.889815727841     0.798351532755     0.950264666848     1.007825032230
         H            7.515902727841     1.887262532755     1.243203666848     1.007825032230
         H            5.832573727841     2.414563532755    -0.038052333152     1.007825032230
         H           -6.129848272159    -4.184552467245     0.392288666848     1.007825032230
         H           -5.803711272159    -3.420821467245     1.958530666848     1.007825032230
         H           -5.293003272159    -5.079671467245     1.661444666848     1.007825032230

  Charge       = 0
  Multiplicity = 1
  Basis Set: 6-311++G**
    Blend: 6-311++G**
  Basis Set: (6-311++G** AUX)
    Blend: AUG-CC-PVTZ-JKFIT

    Orbital Energies [Eh]
    ---------------------

    Doubly Occupied:

       1A    -20.524469     2A    -15.605043     3A    -15.594685
       4A    -15.573673     5A    -15.570011     6A    -15.563689
       7A    -15.556958     8A    -15.555153     9A    -11.369868
      10A    -11.364420    11A    -11.322421    12A    -11.311672
      13A    -11.309081    14A    -11.305206    15A    -11.303335
      16A    -11.301053    17A    -11.294786    18A    -11.294203
      19A    -11.287483    20A    -11.282647    21A    -11.282122
      22A    -11.275692    23A    -11.264454    24A    -11.260308
      25A    -11.259747    26A    -11.259130    27A    -11.251119
      28A    -11.250809    29A    -11.248297    30A    -11.247970
      31A    -11.246634    32A    -11.243768    33A    -11.243689
      34A    -11.240953    35A    -11.238655    36A    -11.235188
      37A    -11.222108    38A     -1.390646    39A     -1.334755
      40A     -1.262123    41A     -1.251069    42A     -1.247430
      43A     -1.235730    44A     -1.201012    45A     -1.198627
      46A     -1.164504    47A     -1.139333    48A     -1.102450
      49A     -1.066460    50A     -1.059576    51A     -1.039137
      52A     -1.034052    53A     -1.026792    54A     -1.005837
      55A     -1.000483    56A     -0.979273    57A     -0.946269
      58A     -0.928237    59A     -0.913630    60A     -0.894022
      61A     -0.868825    62A     -0.860057    63A     -0.848774
      64A     -0.844769    65A     -0.838668    66A     -0.833428
      67A     -0.821335    68A     -0.806174    69A     -0.782045
      70A     -0.750728    71A     -0.734755    72A     -0.726011
      73A     -0.712407    74A     -0.707504    75A     -0.690952
      76A     -0.681980    77A     -0.673108    78A     -0.661402
      79A     -0.656236    80A     -0.653028    81A     -0.649832
      82A     -0.644787    83A     -0.635578    84A     -0.634608
      85A     -0.623265    86A     -0.618354    87A     -0.607851
      88A     -0.606943    89A     -0.601376    90A     -0.597890
      91A     -0.596358    92A     -0.594107    93A     -0.590235
      94A     -0.585256    95A     -0.581894    96A     -0.579742
      97A     -0.576286    98A     -0.575112    99A     -0.566718
     100A     -0.549086   101A     -0.546504   102A     -0.540582
     103A     -0.531511   104A     -0.529399   105A     -0.527189
     106A     -0.518342   107A     -0.514866   108A     -0.511660
     109A     -0.507893   110A     -0.502854   111A     -0.499086
     112A     -0.493919   113A     -0.482134   114A     -0.475516
     115A     -0.456245   116A     -0.441344   117A     -0.431563
     118A     -0.426963   119A     -0.425284   120A     -0.421204
     121A     -0.402056   122A     -0.394055   123A     -0.386435
     124A     -0.380886   125A     -0.363888   126A     -0.349065
     127A     -0.343098   128A     -0.333760   129A     -0.313488
     130A     -0.309878   131A     -0.292710

  @DF-RHF Final Energy: -1572.32562160282555

   => Energetics <=

    Nuclear Repulsion Energy =           3759.1296376852110370
    One-Electron Energy =               -9617.3049481753296277
    Two-Electron Energy =                4285.8496888872923591
    Total Energy =                      -1572.3256216028257768

  Dipole Moment: [D]
     X:    -0.4644      Y:     0.8317      Z:     1.2818     Total:     1.5971

  Basis Set: (6-311++G** AUX)
    Blend: AUG-CC-PVTZ-RI
	 Reference Energy          =   -1572.3256216028255494 [Eh]
	 Singles Energy            =      -0.0000000000000000 [Eh]
	 Same-Spin Energy          =      -1.4721303696524326 [Eh]
	 Opposite-Spin Energy      =      -4.0501126993748464 [Eh]
	 Correlation Energy        =      -5.5222430690272795 [Eh]
	 Total Energy              =   -1577.8478646718529035 [Eh]

	 ================> DF-SCS-MP2 Energies <==================
	-----------------------------------------------------------
	 SCS Same-Spin Scale       =       0.3333333333333333 [-]
	 SCS Opposite-Spin Scale   =       1.2000000000000000 [-]
	 SCS Same-Spin Energy      =      -0.4907101232174775 [Eh]
	 SCS Opposite-Spin Energy  =      -4.8601352392498152 [Eh]
	 SCS Correlation Energy    =      -5.3508453624672931 [Eh]
	 SCS Total Energy          =   -1577.6764669652927751 [Eh]
	-----------------------------------------------------------

*** Psi4 exiting successfully. Buy a developer a beer!
