 Gaussian 09, Revision A.02,
 Gaussian 09:  EM64L-G09RevA.02 11-Jun-2009

 --------------------------------------------------
 #P opt=(,maxcycle=400) wB97XD/6-31G* MaxDisk=100GB
 --------------------------------------------------

 -----------------------------------------------------------------
 MOLECULE0 Rotatable Bond Optimization on g2-node38.bme.utexas.edu
 -----------------------------------------------------------------
 Symbolic Z-matrix:
 Charge =  0 Multiplicity = 1

 SCF Done:  E(RwB97XD) =  -1581.52266714     A.U. after   16 cycles
 SCF Done:  E(RwB97XD) =  -1581.58507954     A.U. after   13 cycles
 SCF Done:  E(RwB97XD) =  -1581.68264313     A.U. after   14 cycles
 SCF Done:  E(RwB97XD) =  -1581.72025177     A.U. after   14 cycles
 SCF Done:  E(RwB97XD) =  -1581.73599257     A.U. after   17 cycles
 SCF Done:  E(RwB97XD) =  -1581.74254254     A.U. after   17 cycles
 SCF Done:  E(RwB97XD) =  -1581.75538400     A.U. after   17 cycles
 SCF Done:  E(RwB97XD) =  -1581.75808370     A.U. after   17 cycles
 SCF Done:  E(RwB97XD) =  -1581.75968079     A.U. after   14 cycles
 SCF Done:  E(RwB97XD) =  -1581.76039567     A.U. after   14 cycles
 SCF Done:  E(RwB97XD) =  -1581.76319008     A.U. after   12 cycles
 SCF Done:  E(RwB97XD) =  -1581.76319528     A.U. after   12 cycles
 SCF Done:  E(RwB97XD) =  -1581.76320860     A.U. after   11 cycles
 SCF Done:  E(RwB97XD) =  -1581.76321367     A.U. after   11 cycles
 SCF Done:  E(RwB97XD) =  -1581.76321505     A.U. after   10 cycles
 SCF Done:  E(RwB97XD) =  -1581.76321554     A.U. after    8 cycles
 SCF Done:  E(RwB97XD) =  -1581.76321595     A.U. after    7 cycles
 SCF Done:  E(RwB97XD) =  -1581.76321620     A.U. after    7 cycles
 SCF Done:  E(RwB97XD) =  -1581.76321611     A.U. after    6 cycles
 SCF Done:  E(RwB97XD) =  -1581.76321606     A.U. after    6 cycles
 Optimization completed.
    -- Stationary point found.

                         Standard orientation:
 ---------------------------------------------------------------------
 Center     Atomic      Atomic             Coordinates (Angstroms)
 Number     Number       Type             X           Y           Z
 ---------------------------------------------------------------------
      1          6           0       -0.473783    4.275041   -0.771504
      2          6           0        0.870770    4.192454   -0.430286
      3          6           0        1.547260    2.990491   -0.631433
      4          6           0        0.820859    1.926382   -1.182409
      5          7           0       -0.468127    1.990039   -1.511447
      6          6           0       -1.097097    3.150059   -1.300414
      7          6           0        2.969144    2.789388   -0.253764
      8          6           0        3.900123    3.819396   -0.154501
      9          6           0        5.186032    3.446891    0.235532
     10          7           0        5.545406    2.197571    0.496841
     11          6           0        4.572072    1.275087    0.354468
     12          7           0        3.312016    1.523735   -0.002063
     13          7           0        4.960945   -0.010920    0.612780
     14          6           0        4.245248   -1.217051    0.494401
     15          6           0        4.969040   -2.426738    0.479734
     16          6           0        4.248452   -3.609611    0.338610
     17          6           0        2.862705   -3.650929    0.195666
     18          6           0        2.171420   -2.443382    0.217083
     19          6           0        2.859711   -1.243382    0.393408
     20          7           0        0.784895   -2.305371    0.039160
     21          6           0       -0.155226   -3.232589   -0.330842
     22          6           0       -1.474640   -2.601121   -0.675261
     23          6           0       -1.549779   -1.358167   -1.310821
     24          6           0       -2.782121   -0.778858   -1.574496
     25          6           0       -3.965502   -1.410040   -1.191391
     26          6           0       -3.883795   -2.677489   -0.607886
     27          6           0       -2.653672   -3.274425   -0.357707
     28          6           0       -5.302547   -0.704272   -1.348453
     29          7           0       -5.692629    0.226013   -0.299813
     30          6           0       -5.025599    1.522663   -0.247774
     31          6           0       -3.815699    1.577621    0.702783
     32          7           0       -4.113119    1.068823    2.038848
     33          6           0       -4.901896    1.978000    2.851129
     34          6           0       -4.679335   -0.274555    1.939895
     35          6           0       -5.914420   -0.340152    1.026137
     36          8           0        0.036654   -4.436475   -0.364185
     37          6           0        6.471809   -2.442477    0.599564
     38          1           0       -1.033266    5.191655   -0.618708
     39          1           0        1.375817    5.045573    0.013548
     40          1           0        1.325023    0.981055   -1.366373
     41          1           0       -2.152056    3.176829   -1.564769
     42          1           0        3.661126    4.851163   -0.380490
     43          1           0        5.967556    4.197065    0.338525
     44          1           0        5.942126   -0.076928    0.838904
     45          1           0        4.796692   -4.548292    0.325664
     46          1           0        2.333785   -4.585031    0.065064
     47          1           0        2.314653   -0.312005    0.418614
     48          1           0        0.446426   -1.358889    0.130258
     49          1           0       -0.653373   -0.833104   -1.627728
     50          1           0       -2.809988    0.190548   -2.065502
     51          1           0       -4.798504   -3.197353   -0.331497
     52          1           0       -2.589957   -4.256961    0.099257
     53          1           0       -5.308281   -0.149117   -2.294290
     54          1           0       -6.094876   -1.460127   -1.422834
     55          1           0       -4.723799    1.803978   -1.263823
     56          1           0       -5.766914    2.267885    0.078120
     57          1           0       -3.458322    2.611489    0.792310
     58          1           0       -2.990902    0.982342    0.295658
     59          1           0       -5.911908    2.205724    2.467019
     60          1           0       -4.364099    2.927323    2.951377
     61          1           0       -5.017743    1.551075    3.853314
     62          1           0       -4.937880   -0.623099    2.947177
     63          1           0       -3.897502   -0.938089    1.552401
     64          1           0       -6.743096    0.208405    1.498134
     65          1           0       -6.248301   -1.377922    0.915236
     66          1           0        6.817127   -2.031069    1.557942
     67          1           0        6.952165   -1.865881   -0.201629
     68          1           0        6.852141   -3.465067    0.535637
 ---------------------------------------------------------------------

 The electronic state is 1-A.
 Alpha  occ. eigenvalues --  -19.23411 -14.49283 -14.48321 -14.46751 -14.46096
 Alpha  occ. eigenvalues --  -14.45764 -14.43617 -14.43135 -10.41778 -10.40081
 Alpha  occ. eigenvalues --  -10.37615 -10.36338 -10.35325 -10.35084 -10.34624
 Alpha  occ. eigenvalues --  -10.34135 -10.34016 -10.33623 -10.32863 -10.32367
 Alpha  occ. eigenvalues --  -10.31861 -10.31492 -10.31179 -10.30935 -10.30708
 Alpha  occ. eigenvalues --  -10.30688 -10.30677 -10.30586 -10.30533 -10.30403
 Alpha  occ. eigenvalues --  -10.30377 -10.30220 -10.30020 -10.29974 -10.29575
 Alpha  occ. eigenvalues --  -10.28740 -10.28405  -1.13443  -1.12296  -1.06322
 Alpha  occ. eigenvalues --   -1.04565  -1.03829  -1.03634  -1.00716  -0.99557
 Alpha  occ. eigenvalues --   -0.96086  -0.94671  -0.93098  -0.89778  -0.88124
 Alpha  occ. eigenvalues --   -0.87388  -0.86228  -0.85399  -0.84542  -0.83783
 Alpha  occ. eigenvalues --   -0.81888  -0.79581  -0.78270  -0.77798  -0.76320
 Alpha  occ. eigenvalues --   -0.73881  -0.73301  -0.73025  -0.72621  -0.70871
 Alpha  occ. eigenvalues --   -0.70314  -0.69614  -0.68039  -0.66413  -0.65150
 Alpha  occ. eigenvalues --   -0.63656  -0.63409  -0.62228  -0.61762  -0.60211
 Alpha  occ. eigenvalues --   -0.58848  -0.58045  -0.57570  -0.56611  -0.56101
 Alpha  occ. eigenvalues --   -0.55817  -0.55236  -0.55134  -0.54965  -0.54255
 Alpha  occ. eigenvalues --   -0.53867  -0.53239  -0.53154  -0.52612  -0.52174
 Alpha  occ. eigenvalues --   -0.51912  -0.51510  -0.51371  -0.50999  -0.50575
 Alpha  occ. eigenvalues --   -0.50365  -0.50116  -0.49974  -0.49497  -0.48335
 Alpha  occ. eigenvalues --   -0.47217  -0.46906  -0.46619  -0.46319  -0.46211
 Alpha  occ. eigenvalues --   -0.45762  -0.45235  -0.44797  -0.44044  -0.43932
 Alpha  occ. eigenvalues --   -0.43328  -0.43017  -0.42141  -0.41766  -0.41439
 Alpha  occ. eigenvalues --   -0.40964  -0.40776  -0.39912  -0.38187  -0.37592
 Alpha  occ. eigenvalues --   -0.35821  -0.35293  -0.34001  -0.33446  -0.33374
 Alpha  occ. eigenvalues --   -0.32818  -0.31904  -0.30772  -0.29115  -0.27079
 Alpha  occ. eigenvalues --   -0.24996
 Alpha virt. eigenvalues --   -0.00292   0.02872   0.03585   0.04480   0.06433
 Alpha virt. eigenvalues --    0.07258   0.08204   0.10371   0.13887   0.14815
 Alpha virt. eigenvalues --    0.15728   0.16386   0.17252   0.17441   0.18251

 Mulliken atomic charges:
              1
     1  C   -0.197839
     2  C   -0.154403
     3  C    0.035504
     4  C    0.009585
     5  N   -0.437521
     6  C    0.035727
     7  C    0.295167
     8  C   -0.254771
     9  C    0.049020
    10  N   -0.493042
    11  C    0.714386
    12  N   -0.568411
    13  N   -0.802081
    14  C    0.291488
    15  C    0.119859
    16  C   -0.240382
    17  C   -0.191297
    18  C    0.358171
    19  C   -0.269721
    20  N   -0.757986
    21  C    0.585760
    22  C    0.015206
    23  C   -0.205366
    24  C   -0.217903
    25  C    0.155959
    26  C   -0.223076
    27  C   -0.178387
    28  C   -0.263555
    29  N   -0.382218
    30  C   -0.183903
    31  C   -0.181773
    32  N   -0.385718
    33  C   -0.349274
    34  C   -0.182635
    35  C   -0.186521
    36  O   -0.513300
    37  C   -0.607368
    38  H    0.186141
    39  H    0.186726
    40  H    0.198114
    41  H    0.179048
    42  H    0.180748
    43  H    0.189492
    44  H    0.369214
    45  H    0.160820
    46  H    0.213078
    47  H    0.199379
    48  H    0.361561
    49  H    0.185459
    50  H    0.172058
    51  H    0.163617
    52  H    0.195615
    53  H    0.170280
    54  H    0.168918
    55  H    0.148154
    56  H    0.158355
    57  H    0.141659
    58  H    0.174894
    59  H    0.135267
    60  H    0.164119
    61  H    0.167872
    62  H    0.153492
    63  H    0.172927
    64  H    0.159411
    65  H    0.154992
    66  H    0.178047
    67  H    0.182738
    68  H    0.190421
 Sum of Mulliken atomic charges =   0.00000

 Dipole moment (field-independent basis, Debye):
    X=              0.5807    Y=              6.5722    Z=              0.4334  Tot=              6.6121
 Quadrupole moment (field-independent basis, Debye-Ang):
   XX=           -193.2953   YY=           -202.5068   ZZ=           -220.4846
   XY=              3.1060   XZ=             -1.2802   YZ=             -5.2188

 Normal termination of Gaussian 09 at Thu Feb 27 17:14:24 2020.
