 Gaussian 09, Revision A.02,
 Gaussian 09:  EM64L-G09RevA.02 11-Jun-2009

 --------------------------------------------------
 #P opt=(,maxcycle=400) wB97XD/6-31G* MaxDisk=100GB
 --------------------------------------------------

 -----------------------------------------------------------------
 MOLECULE0 Rotatable Bond Optimization on g2-node38.bme.utexas.edu
 -----------------------------------------------------------------
 Symbolic Z-matrix:
 Charge =  0 Multiplicity = 1

 SCF Done:  E(RwB97XD) =  -1581.51769241     A.U. after   16 cycles
 SCF Done:  E(RwB97XD) =  -1581.57805332     A.U. after   13 cycles
 SCF Done:  E(RwB97XD) =  -1581.67630126     A.U. after   14 cycles
 SCF Done:  E(RwB97XD) =  -1581.72325813     A.U. after   17 cycles
 SCF Done:  E(RwB97XD) =  -1581.74546276     A.U. after   17 cycles
 SCF Done:  E(RwB97XD) =  -1581.75339082     A.U. after   16 cycles
 SCF Done:  E(RwB97XD) =  -1581.75692617     A.U. after   14 cycles
 SCF Done:  E(RwB97XD) =  -1581.75769785     A.U. after   15 cycles
 SCF Done:  E(RwB97XD) =  -1581.75874429     A.U. after   14 cycles
 SCF Done:  E(RwB97XD) =  -1581.75868938     A.U. after   14 cycles
 SCF Done:  E(RwB97XD) =  -1581.76010455     A.U. after    9 cycles
 SCF Done:  E(RwB97XD) =  -1581.76010334     A.U. after   11 cycles
 SCF Done:  E(RwB97XD) =  -1581.76010204     A.U. after   11 cycles
 SCF Done:  E(RwB97XD) =  -1581.76010042     A.U. after   11 cycles
 SCF Done:  E(RwB97XD) =  -1581.76010125     A.U. after    7 cycles
 SCF Done:  E(RwB97XD) =  -1581.76010105     A.U. after    8 cycles
 SCF Done:  E(RwB97XD) =  -1581.76010102     A.U. after    7 cycles
 SCF Done:  E(RwB97XD) =  -1581.76010083     A.U. after    7 cycles
 SCF Done:  E(RwB97XD) =  -1581.76010074     A.U. after    6 cycles
 SCF Done:  E(RwB97XD) =  -1581.76010066     A.U. after    6 cycles
 Optimization completed.
    -- Stationary point found.

                         Standard orientation:
 ---------------------------------------------------------------------
 Center     Atomic      Atomic             Coordinates (Angstroms)
 Number     Number       Type             X           Y           Z
 ---------------------------------------------------------------------
      1          6           0        1.065544    4.847894    0.147802
      2          6           0        2.369502    4.385184    0.275630
      3          6           0        2.684376    3.109988   -0.191195
      4          6           0        1.652661    2.369331   -0.780959
      5          7           0        0.396513    2.793018   -0.901119
      6          6           0        0.117191    4.014089   -0.434727
      7          6           0        4.033315    2.509641   -0.040434
      8          6           0        5.202983    3.259306    0.042434
      9          6           0        6.382871    2.536807    0.214430
     10          7           0        6.430638    1.214856    0.296499
     11          6           0        5.243046    0.583632    0.187911
     12          7           0        4.059402    1.175118    0.021249
     13          7           0        5.319838   -0.778888    0.276056
     14          6           0        4.316699   -1.764441    0.244772
     15          6           0        4.682629   -3.091620    0.550576
     16          6           0        3.683537   -4.060064    0.525033
     17          6           0        2.354978   -3.782638    0.210549
     18          6           0        2.020081   -2.467318   -0.097975
     19          6           0        2.996862   -1.472105   -0.077921
     20          7           0        0.732522   -2.028928   -0.455493
     21          6           0       -0.466453   -2.681957   -0.365835
     22          6           0       -1.660567   -1.848238   -0.749344
     23          6           0       -1.653147   -0.452053   -0.831048
     24          6           0       -2.799007    0.234701   -1.211635
     25          6           0       -3.983856   -0.443334   -1.499397
     26          6           0       -3.983525   -1.837959   -1.416993
     27          6           0       -2.842292   -2.532439   -1.040355
     28          6           0       -5.247809    0.322000   -1.862912
     29          7           0       -6.140735    0.722478   -0.788424
     30          6           0       -5.655568    1.736019    0.141353
     31          6           0       -5.001023    1.156749    1.406759
     32          7           0       -5.842293    0.175732    2.086686
     33          6           0       -6.956013    0.758430    2.813213
     34          6           0       -6.231407   -0.874431    1.149471
     35          6           0       -6.903202   -0.327225   -0.121280
     36          8           0       -0.580047   -3.848911   -0.025564
     37          6           0        6.103624   -3.452181    0.902603
     38          1           0        0.783077    5.830643    0.509775
     39          1           0        3.123108    4.998521    0.761236
     40          1           0        1.870761    1.383993   -1.183185
     41          1           0       -0.916321    4.337848   -0.532809
     42          1           0        5.213390    4.338857   -0.043257
     43          1           0        7.338503    3.051762    0.289456
     44          1           0        6.265381   -1.095569    0.430343
     45          1           0        3.953472   -5.085842    0.763204
     46          1           0        1.600816   -4.556638    0.206269
     47          1           0        2.726275   -0.448214   -0.283437
     48          1           0        0.702400   -1.085114   -0.807017
     49          1           0       -0.776282    0.141332   -0.583815
     50          1           0       -2.762458    1.319422   -1.278506
     51          1           0       -4.893677   -2.386606   -1.649526
     52          1           0       -2.841749   -3.614918   -0.966713
     53          1           0       -4.960848    1.234070   -2.401516
     54          1           0       -5.837619   -0.283158   -2.562518
     55          1           0       -4.951874    2.390578   -0.385648
     56          1           0       -6.510772    2.363499    0.434634
     57          1           0       -4.761920    1.964084    2.109797
     58          1           0       -4.060319    0.659975    1.142313
     59          1           0       -7.700424    1.292498    2.196785
     60          1           0       -6.568534    1.468175    3.552530
     61          1           0       -7.482380   -0.035079    3.354996
     62          1           0       -6.906194   -1.571885    1.660303
     63          1           0       -5.325174   -1.429187    0.879850
     64          1           0       -7.887630    0.087530    0.142571
     65          1           0       -7.085778   -1.138436   -0.835317
     66          1           0        6.454519   -2.917354    1.794931
     67          1           0        6.803070   -3.230420    0.085048
     68          1           0        6.188176   -4.521373    1.112394
 ---------------------------------------------------------------------

 The electronic state is 1-A.
 Alpha  occ. eigenvalues --  -19.23284 -14.49310 -14.48400 -14.46770 -14.46126
 Alpha  occ. eigenvalues --  -14.45871 -14.43444 -14.42832 -10.41818 -10.40153
 Alpha  occ. eigenvalues --  -10.37643 -10.36361 -10.35299 -10.35231 -10.34643
 Alpha  occ. eigenvalues --  -10.34149 -10.33997 -10.33664 -10.32863 -10.32297
 Alpha  occ. eigenvalues --  -10.31875 -10.31132 -10.31059 -10.31052 -10.30945
 Alpha  occ. eigenvalues --  -10.30744 -10.30399 -10.30386 -10.30362 -10.30325
 Alpha  occ. eigenvalues --  -10.30173 -10.30162 -10.30106 -10.30036 -10.29516
 Alpha  occ. eigenvalues --  -10.28709 -10.28310  -1.13481  -1.12316  -1.06375
 Alpha  occ. eigenvalues --   -1.04592  -1.03635  -1.03601  -1.00740  -0.99343
 Alpha  occ. eigenvalues --   -0.96055  -0.94693  -0.93142  -0.89805  -0.88078
 Alpha  occ. eigenvalues --   -0.87399  -0.86252  -0.85199  -0.84534  -0.83772
 Alpha  occ. eigenvalues --   -0.81725  -0.79531  -0.78273  -0.77718  -0.76340
 Alpha  occ. eigenvalues --   -0.73952  -0.73055  -0.72983  -0.72644  -0.70875
 Alpha  occ. eigenvalues --   -0.70324  -0.69544  -0.67989  -0.66453  -0.65242
 Alpha  occ. eigenvalues --   -0.63729  -0.63329  -0.62284  -0.61851  -0.60211
 Alpha  occ. eigenvalues --   -0.58870  -0.58004  -0.57564  -0.56466  -0.56202
 Alpha  occ. eigenvalues --   -0.55781  -0.55079  -0.54904  -0.54736  -0.54337
 Alpha  occ. eigenvalues --   -0.53658  -0.53209  -0.52986  -0.52414  -0.52088
 Alpha  occ. eigenvalues --   -0.51889  -0.51562  -0.51330  -0.50924  -0.50712
 Alpha  occ. eigenvalues --   -0.50518  -0.50388  -0.49942  -0.49437  -0.48335
 Alpha  occ. eigenvalues --   -0.47286  -0.46715  -0.46540  -0.46443  -0.46060
 Alpha  occ. eigenvalues --   -0.45583  -0.44956  -0.44607  -0.43944  -0.43745
 Alpha  occ. eigenvalues --   -0.43354  -0.43151  -0.42134  -0.41689  -0.41267
 Alpha  occ. eigenvalues --   -0.40729  -0.40633  -0.39892  -0.38213  -0.37563
 Alpha  occ. eigenvalues --   -0.35836  -0.35359  -0.33919  -0.33575  -0.33262
 Alpha  occ. eigenvalues --   -0.32901  -0.32020  -0.30634  -0.29158  -0.27013
 Alpha  occ. eigenvalues --   -0.24766
 Alpha virt. eigenvalues --   -0.00256   0.02894   0.03199   0.04358   0.06536
 Alpha virt. eigenvalues --    0.07197   0.08457   0.10624   0.13527   0.14911
 Alpha virt. eigenvalues --    0.15917   0.16358   0.17277   0.17674   0.18732

 Mulliken atomic charges:
              1
     1  C   -0.195424
     2  C   -0.154973
     3  C    0.039075
     4  C    0.014662
     5  N   -0.432854
     6  C    0.028060
     7  C    0.290715
     8  C   -0.257044
     9  C    0.050149
    10  N   -0.494762
    11  C    0.719246
    12  N   -0.566408
    13  N   -0.810890
    14  C    0.288645
    15  C    0.120415
    16  C   -0.241423
    17  C   -0.187666
    18  C    0.364125
    19  C   -0.270680
    20  N   -0.780595
    21  C    0.612457
    22  C    0.017061
    23  C   -0.210720
    24  C   -0.226428
    25  C    0.160071
    26  C   -0.223208
    27  C   -0.178173
    28  C   -0.263888
    29  N   -0.381377
    30  C   -0.184401
    31  C   -0.182451
    32  N   -0.383735
    33  C   -0.349383
    34  C   -0.183813
    35  C   -0.185961
    36  O   -0.521012
    37  C   -0.609410
    38  H    0.186819
    39  H    0.187370
    40  H    0.189855
    41  H    0.182088
    42  H    0.181431
    43  H    0.189694
    44  H    0.370015
    45  H    0.160492
    46  H    0.213619
    47  H    0.204490
    48  H    0.362141
    49  H    0.178578
    50  H    0.170168
    51  H    0.164348
    52  H    0.201596
    53  H    0.169245
    54  H    0.169594
    55  H    0.149572
    56  H    0.158720
    57  H    0.150198
    58  H    0.173058
    59  H    0.134264
    60  H    0.165892
    61  H    0.167540
    62  H    0.153478
    63  H    0.173241
    64  H    0.159255
    65  H    0.152615
    66  H    0.183045
    67  H    0.178585
    68  H    0.190990
 Sum of Mulliken atomic charges =   0.00000

 Dipole moment (field-independent basis, Debye):
    X=              2.2686    Y=              6.0716    Z=             -0.1718  Tot=              6.4839
 Quadrupole moment (field-independent basis, Debye-Ang):
   XX=           -188.4989   YY=           -195.1470   ZZ=           -221.6147
   XY=              6.1948   XZ=              4.3081   YZ=              5.5049

 Normal termination of Gaussian 09 at Tue Mar 10 13:26:35 2020.
