                               Psi4 1.3.2 release

  ==> Input File <==

--------------------------------------------------------------------------
molecule {
0 1
 C   -7.765890   -3.989996    0.515358
 C   -6.687006   -3.409439   -0.163481
 C   -6.333809   -2.068777    0.089676
 C   -7.126392   -1.390843    1.048354
 N   -8.161913   -1.930503    1.704971
 C   -8.469547   -3.208030    1.437003
 C   -5.191089   -1.362061   -0.595036
 C   -4.351004   -1.944782   -1.560264
 C   -3.346420   -1.120195   -2.078717
 N   -3.152260    0.143753   -1.711859
 C   -4.011532    0.621732   -0.790100
 N   -5.000027   -0.078062   -0.233651
 N   -3.837794    1.930645   -0.409927
 C   -2.682164    2.757841   -0.182345
 C   -2.874146    4.130131    0.166735
 C   -1.726012    4.902733    0.400189
 C   -0.421738    4.408542    0.302731
 C   -0.242041    3.066564   -0.051471
 C   -1.373407    2.264963   -0.284578
 N    1.030952    2.426145   -0.218231
 C    2.307745    2.864488    0.053105
 C    3.461626    1.933864   -0.269103
 C    3.451459    1.017494   -1.333814
 C    4.557227    0.197313   -1.572254
 C    5.716864    0.274082   -0.777481
 C    5.716926    1.204674    0.279458
 C    4.618399    2.032330    0.522093
 C    6.920357   -0.636620   -1.030955
 N    6.978299   -1.965170   -0.399085
 C    6.078448   -3.034434   -0.888019
 C    4.744872   -3.162534   -0.107233
 N    4.915953   -3.295880    1.359513
 C    5.227601   -4.637768    1.866074
 C    5.779307   -2.190087    1.841677
 C    7.119055   -2.050689    1.072808
 O    2.535237    3.955768    0.551197
 C   -4.241465    4.779004    0.307334
 H   -8.054568   -5.021607    0.336968
 H   -6.140489   -4.018896   -0.879098
 H   -6.911182   -0.356025    1.298958
 H   -9.316044   -3.611414    1.990407
 H   -4.437272   -2.964841   -1.913552
 H   -2.640489   -1.475766   -2.828550
 H   -4.739902    2.370725   -0.309789
 H   -1.837845    5.951285    0.673173
 H    0.435061    5.042524    0.493075
 H   -1.248519    1.229550   -0.566068
 H    0.966205    1.452543   -0.479166
 H    2.580834    0.961408   -1.982223
 H    4.512977   -0.514103   -2.396682
 H    6.588438    1.286743    0.928355
 H    4.640768    2.759006    1.330452
 H    7.006783   -0.797852   -2.114867
 H    7.826620   -0.100063   -0.715677
 H    5.875643   -2.905042   -2.065987
 H    6.805176   -4.310360   -0.732730
 H    4.068664   -4.194687   -0.549970
 H    4.003595   -2.097315   -0.313404
 H    6.209938   -4.971749    1.513096
 H    4.469184   -5.354681    1.530694
 H    5.227121   -4.637971    2.962307
 H    6.006268   -2.353622    3.107737
 H    5.036618   -1.001624    1.702477
 H    7.922512   -3.263866    1.359415
 H    7.738392   -1.145354    1.476395
 H   -4.875555    4.279925    1.053765
 H   -4.783199    4.761530   -0.642405
 H   -4.180984    5.827145    0.611722
}
memory 20GB
set_num_threads(6)
psi4_io.set_default_path("/scratch/bdw2292")
set freeze_core True
E, wfn = energy('mp2/6-311++G**',return_wfn=True)
oeprop(wfn,"WIBERG_LOWDIN_INDICES")
clean()
--------------------------------------------------------------------------

    Molecular point group: c1

    Geometry (in Angstrom), charge = 0, multiplicity = 1:

       Center              X                  Y                   Z               Mass
    ------------   -----------------  -----------------  -----------------  -----------------
         C           -7.694297426829    -4.055207493334     0.530313686529    12.000000000000
         C           -6.615413426829    -3.474650493334    -0.148525313471    12.000000000000
         C           -6.262216426829    -2.133988493334     0.104631686529    12.000000000000
         C           -7.054799426829    -1.456054493334     1.063309686529    12.000000000000
         N           -8.090320426829    -1.995714493334     1.719926686529    14.003074004430
         C           -8.397954426829    -3.273241493334     1.451958686529    12.000000000000
         C           -5.119496426829    -1.427272493334    -0.580080313471    12.000000000000
         C           -4.279411426829    -2.009993493334    -1.545308313471    12.000000000000
         C           -3.274827426829    -1.185406493334    -2.063761313471    12.000000000000
         N           -3.080667426829     0.078541506666    -1.696903313471    14.003074004430
         C           -3.939939426829     0.556520506666    -0.775144313471    12.000000000000
         N           -4.928434426829    -0.143273493334    -0.218695313471    14.003074004430
         N           -3.766201426829     1.865433506666    -0.394971313471    14.003074004430
         C           -2.610571426829     2.692629506666    -0.167389313471    12.000000000000
         C           -2.802553426829     4.064919506666     0.181690686529    12.000000000000
         C           -1.654419426829     4.837521506666     0.415144686529    12.000000000000
         C           -0.350145426829     4.343330506666     0.317686686529    12.000000000000
         C           -0.170448426829     3.001352506666    -0.036515313471    12.000000000000
         C           -1.301814426829     2.199751506666    -0.269622313471    12.000000000000
         N            1.102544573171     2.360933506666    -0.203275313471    14.003074004430
         C            2.379337573171     2.799276506666     0.068060686529    12.000000000000
         C            3.533218573171     1.868652506666    -0.254147313471    12.000000000000
         C            3.523051573171     0.952282506666    -1.318858313471    12.000000000000
         C            4.628819573171     0.132101506666    -1.557298313471    12.000000000000
         C            5.788456573171     0.208870506666    -0.762525313471    12.000000000000
         C            5.788518573171     1.139462506666     0.294413686529    12.000000000000
         C            4.689991573171     1.967118506666     0.537048686529    12.000000000000
         C            6.991949573171    -0.701831493334    -1.015999313471    12.000000000000
         N            7.049891573171    -2.030381493334    -0.384129313471    14.003074004430
         C            6.150040573171    -3.099645493334    -0.873063313471    12.000000000000
         C            4.816464573171    -3.227745493334    -0.092277313471    12.000000000000
         N            4.987545573171    -3.361091493334     1.374468686529    14.003074004430
         C            5.299193573171    -4.702979493334     1.881029686529    12.000000000000
         C            5.850899573171    -2.255298493334     1.856632686529    12.000000000000
         C            7.190647573171    -2.115900493334     1.087763686529    12.000000000000
         O            2.606829573171     3.890556506666     0.566152686529    15.994914619570
         C           -4.169872426829     4.713792506666     0.322289686529    12.000000000000
         H           -7.982975426829    -5.086818493334     0.351923686529     1.007825032230
         H           -6.068896426829    -4.084107493334    -0.864142313471     1.007825032230
         H           -6.839589426829    -0.421236493334     1.313913686529     1.007825032230
         H           -9.244451426829    -3.676625493334     2.005362686529     1.007825032230
         H           -4.365679426829    -3.030052493334    -1.898596313471     1.007825032230
         H           -2.568896426829    -1.540977493334    -2.813594313471     1.007825032230
         H           -4.668309426829     2.305513506666    -0.294833313471     1.007825032230
         H           -1.766252426829     5.886073506666     0.688128686529     1.007825032230
         H            0.506653573171     4.977312506666     0.508030686529     1.007825032230
         H           -1.176926426829     1.164338506666    -0.551112313471     1.007825032230
         H            1.037797573171     1.387331506666    -0.464210313471     1.007825032230
         H            2.652426573171     0.896196506666    -1.967267313471     1.007825032230
         H            4.584569573171    -0.579314493334    -2.381726313471     1.007825032230
         H            6.660030573171     1.221531506666     0.943310686529     1.007825032230
         H            4.712360573171     2.693794506666     1.345407686529     1.007825032230
         H            7.078375573171    -0.863063493334    -2.099911313471     1.007825032230
         H            7.898212573171    -0.165274493334    -0.700721313471     1.007825032230
         H            5.947235573171    -2.970253493334    -2.051031313471     1.007825032230
         H            6.876768573171    -4.375571493334    -0.717774313471     1.007825032230
         H            4.140256573171    -4.259898493334    -0.535014313471     1.007825032230
         H            4.075187573171    -2.162526493334    -0.298448313471     1.007825032230
         H            6.281530573171    -5.036960493334     1.528051686529     1.007825032230
         H            4.540776573171    -5.419892493334     1.545649686529     1.007825032230
         H            5.298713573171    -4.703182493334     2.977262686529     1.007825032230
         H            6.077860573171    -2.418833493334     3.122692686529     1.007825032230
         H            5.108210573171    -1.066835493334     1.717432686529     1.007825032230
         H            7.994104573171    -3.329077493334     1.374370686529     1.007825032230
         H            7.809984573171    -1.210565493334     1.491350686529     1.007825032230
         H           -4.803962426829     4.214713506666     1.068720686529     1.007825032230
         H           -4.711606426829     4.696318506666    -0.627449313471     1.007825032230
         H           -4.109391426829     5.761933506666     0.626677686529     1.007825032230

  Charge       = 0
  Multiplicity = 1
  Basis Set: 6-311++G**
    Blend: 6-311++G**
  Basis Set: (6-311++G** AUX)
    Blend: AUG-CC-PVTZ-JKFIT

    Orbital Energies [Eh]
    ---------------------

    Doubly Occupied:

       1A    -20.524413     2A    -15.605180     3A    -15.592512
       4A    -15.576833     5A    -15.573781     6A    -15.572375
       7A    -15.571313     8A    -15.557945     9A    -11.369624
      10A    -11.368403    11A    -11.332960    12A    -11.315261
      13A    -11.312537    14A    -11.311143    15A    -11.311031
      16A    -11.306150    17A    -11.302511    18A    -11.293898
      19A    -11.293297    20A    -11.291208    21A    -11.283492
      22A    -11.281787    23A    -11.273651    24A    -11.264099
      25A    -11.262926    26A    -11.262737    27A    -11.258621
      28A    -11.254997    29A    -11.254763    30A    -11.254060
      31A    -11.251116    32A    -11.249061    33A    -11.243945
      34A    -11.237865    35A    -11.232466    36A    -11.232070
      37A    -11.221518    38A     -1.390299    39A     -1.344823
      40A     -1.269516    41A     -1.251485    42A     -1.248267
      43A     -1.240473    44A     -1.208936    45A     -1.202573
      46A     -1.167854    47A     -1.139621    48A     -1.110092
      49A     -1.072470    50A     -1.063021    51A     -1.043238
      52A     -1.037381    53A     -1.030482    54A     -1.006287
      55A     -0.994800    56A     -0.980235    57A     -0.947050
      58A     -0.930574    59A     -0.920942    60A     -0.901453
      61A     -0.868662    62A     -0.865780    63A     -0.855584
      64A     -0.847824    65A     -0.835329    66A     -0.828571
      67A     -0.823043    68A     -0.808176    69A     -0.778351
      70A     -0.752987    71A     -0.738450    72A     -0.733377
      73A     -0.717504    74A     -0.706830    75A     -0.700727
      76A     -0.679251    77A     -0.675368    78A     -0.665783
      79A     -0.661804    80A     -0.652680    81A     -0.651756
      82A     -0.645156    83A     -0.637991    84A     -0.635869
      85A     -0.623405    86A     -0.618485    87A     -0.609234
      88A     -0.608832    89A     -0.605948    90A     -0.601833
      91A     -0.598714    92A     -0.593234    93A     -0.590141
      94A     -0.585486    95A     -0.584766    96A     -0.581792
      97A     -0.579697    98A     -0.577977    99A     -0.567649
     100A     -0.551673   101A     -0.546920   102A     -0.538196
     103A     -0.533942   104A     -0.528744   105A     -0.527692
     106A     -0.523696   107A     -0.512890   108A     -0.512083
     109A     -0.507969   110A     -0.507107   111A     -0.506602
     112A     -0.500047   113A     -0.485528   114A     -0.478085
     115A     -0.458785   116A     -0.448326   117A     -0.439697
     118A     -0.434209   119A     -0.430827   120A     -0.424714
     121A     -0.413576   122A     -0.412761   123A     -0.395426
     124A     -0.385580   125A     -0.374190   126A     -0.352138
     127A     -0.347961   128A     -0.339993   129A     -0.317659
     130A     -0.314101   131A     -0.287849

  @DF-RHF Final Energy: -1572.35705085996938

   => Energetics <=

    Nuclear Repulsion Energy =           3531.2303372930668957
    One-Electron Energy =               -9160.7019203521922464
    Two-Electron Energy =                4057.1145321991552919
    Total Energy =                      -1572.3570508599696041

  Dipole Moment: [D]
     X:    -0.9372      Y:    -5.6075      Z:    -3.0078     Total:     6.4319

  Basis Set: (6-311++G** AUX)
    Blend: AUG-CC-PVTZ-RI
	 Reference Energy          =   -1572.3570508599693767 [Eh]
	 Singles Energy            =      -0.0000000000000000 [Eh]
	 Same-Spin Energy          =      -1.4685257028920584 [Eh]
	 Opposite-Spin Energy      =      -4.0443618593016968 [Eh]
	 Correlation Energy        =      -5.5128875621937556 [Eh]
	 Total Energy              =   -1577.8699384221631590 [Eh]

	 ================> DF-SCS-MP2 Energies <==================
	-----------------------------------------------------------
	 SCS Same-Spin Scale       =       0.3333333333333333 [-]
	 SCS Opposite-Spin Scale   =       1.2000000000000000 [-]
	 SCS Same-Spin Energy      =      -0.4895085676306861 [Eh]
	 SCS Opposite-Spin Energy  =      -4.8532342311620358 [Eh]
	 SCS Correlation Energy    =      -5.3427427987927221 [Eh]
	 SCS Total Energy          =   -1577.6997936587620188 [Eh]
	-----------------------------------------------------------

*** Psi4 exiting successfully. Buy a developer a beer!
