                               Psi4 1.3.2 release

  ==> Input File <==

--------------------------------------------------------------------------
molecule {
0 1
 C   -0.301469    4.452974   -1.146939
 C    1.035538    4.362522   -0.736595
 C    1.660272    3.103065   -0.650398
 C    0.867461    1.993981   -1.035480
 N   -0.408546    2.060084   -1.437817
 C   -0.978293    3.274468   -1.480938
 C    3.081757    2.900019   -0.188093
 C    4.018224    3.922321    0.035706
 C    5.292059    3.504519    0.440508
 N    5.639679    2.234141    0.637315
 C    4.671576    1.320358    0.423626
 N    3.435671    1.618708    0.019113
 N    5.031016    0.001899    0.652275
 C    4.341155   -1.253242    0.477976
 C    5.078989   -2.475825    0.461398
 C    4.353725   -3.664850    0.269492
 C    2.965727   -3.717012    0.092158
 C    2.251660   -2.515545    0.130125
 C    2.950821   -1.314637    0.325409
 N    0.840814   -2.369516   -0.044324
 C   -0.140358   -3.256387   -0.422971
 C   -1.488346   -2.647160   -0.761850
 C   -1.617042   -1.401491   -1.400312
 C   -2.877537   -0.845252   -1.619895
 C   -4.051072   -1.504357   -1.210689
 C   -3.910505   -2.779879   -0.628798
 C   -2.653191   -3.357503   -0.430650
 C   -5.413257   -0.821597   -1.342474
 N   -5.845733    0.120013   -0.293881
 C   -5.233164    1.468141   -0.232685
 C   -4.017147    1.587986    0.723388
 N   -4.287337    1.106838    2.100087
 C   -4.961957    2.046051    3.003285
 C   -4.852776   -0.262857    2.026038
 C   -6.071571   -0.396322    1.075671
 O    0.036409   -4.463344   -0.472022
 C    6.588068   -2.539504    0.626513
 H   -0.807694    5.411986   -1.204910
 H    1.558645    5.275698   -0.463631
 H    1.291710    0.994846   -1.044495
 H   -2.017311    3.291775   -1.806517
 H    3.820734    4.977538   -0.107986
 H    6.097522    4.215193    0.623542
 H    6.003847   -0.039362    0.916044
 H    4.889569   -4.612758    0.242903
 H    2.444788   -4.652191   -0.072222
 H    2.397837   -0.391616    0.371781
 H    0.514913   -1.419563    0.065622
 H   -0.729412   -0.850096   -1.700702
 H   -2.934609    0.142451   -2.077170
 H   -4.795127   -3.324177   -0.299549
 H   -2.554871   -4.339750    0.025042
 H   -5.437637   -0.272016   -2.294258
 H   -6.185774   -1.601291   -1.403851
 H   -4.969420    1.839170   -1.291217
 H   -6.288329    2.394386    0.280706
 H   -3.618254    2.873095    0.786500
 H   -3.056499    0.935343    0.287388
 H   -5.979766    2.260027    2.658097
 H   -4.401614    2.986535    3.058266
 H   -5.012596    1.626940    4.014837
 H   -5.162616   -0.650315    3.201539
 H   -3.799036   -1.120056    1.560473
 H   -7.175681    0.387832    1.655809
 H   -6.451896   -1.540407    1.033513
 H    6.924548   -2.155448    1.600125
 H    7.093592   -1.951637   -0.144642
 H    6.978020   -3.557624    0.547132
}
memory 20GB
set_num_threads(6)
psi4_io.set_default_path("/scratch/bdw2292")
set freeze_core True
E, wfn = energy('mp2/6-311++G**',return_wfn=True)
oeprop(wfn,"WIBERG_LOWDIN_INDICES")
clean()
--------------------------------------------------------------------------

    Molecular point group: c1

    Geometry (in Angstrom), charge = 0, multiplicity = 1:

       Center              X                  Y                   Z               Mass
    ------------   -----------------  -----------------  -----------------  -----------------
         C           -0.377976741337     4.467529522868    -1.119109539719    12.000000000000
         C            0.959030258663     4.377077522868    -0.708765539719    12.000000000000
         C            1.583764258663     3.117620522868    -0.622568539719    12.000000000000
         C            0.790953258663     2.008536522868    -1.007650539719    12.000000000000
         N           -0.485053741337     2.074639522868    -1.409987539719    14.003074004430
         C           -1.054800741337     3.289023522868    -1.453108539719    12.000000000000
         C            3.005249258663     2.914574522868    -0.160263539719    12.000000000000
         C            3.941716258663     3.936876522868     0.063535460281    12.000000000000
         C            5.215551258663     3.519074522868     0.468337460281    12.000000000000
         N            5.563171258663     2.248696522868     0.665144460281    14.003074004430
         C            4.595068258663     1.334913522868     0.451455460281    12.000000000000
         N            3.359163258663     1.633263522868     0.046942460281    14.003074004430
         N            4.954508258663     0.016454522868     0.680104460281    14.003074004430
         C            4.264647258663    -1.238686477132     0.505805460281    12.000000000000
         C            5.002481258663    -2.461269477132     0.489227460281    12.000000000000
         C            4.277217258663    -3.650294477132     0.297321460281    12.000000000000
         C            2.889219258663    -3.702456477132     0.119987460281    12.000000000000
         C            2.175152258663    -2.500989477132     0.157954460281    12.000000000000
         C            2.874313258663    -1.300081477132     0.353238460281    12.000000000000
         N            0.764306258663    -2.354960477132    -0.016494539719    14.003074004430
         C           -0.216865741337    -3.241831477132    -0.395141539719    12.000000000000
         C           -1.564853741337    -2.632604477132    -0.734020539719    12.000000000000
         C           -1.693549741337    -1.386935477132    -1.372482539719    12.000000000000
         C           -2.954044741337    -0.830696477132    -1.592065539719    12.000000000000
         C           -4.127579741337    -1.489801477132    -1.182859539719    12.000000000000
         C           -3.987012741337    -2.765323477132    -0.600968539719    12.000000000000
         C           -2.729698741337    -3.342947477132    -0.402820539719    12.000000000000
         C           -5.489764741337    -0.807041477132    -1.314644539719    12.000000000000
         N           -5.922240741337     0.134568522868    -0.266051539719    14.003074004430
         C           -5.309671741337     1.482696522868    -0.204855539719    12.000000000000
         C           -4.093654741337     1.602541522868     0.751217460281    12.000000000000
         N           -4.363844741337     1.121393522868     2.127916460281    14.003074004430
         C           -5.038464741337     2.060606522868     3.031114460281    12.000000000000
         C           -4.929283741337    -0.248301477132     2.053867460281    12.000000000000
         C           -6.148078741337    -0.381766477132     1.103500460281    12.000000000000
         O           -0.040098741337    -4.448788477132    -0.444192539719    15.994914619570
         C            6.511560258663    -2.524948477132     0.654342460281    12.000000000000
         H           -0.884201741337     5.426541522868    -1.177080539719     1.007825032230
         H            1.482137258663     5.290253522868    -0.435801539719     1.007825032230
         H            1.215202258663     1.009401522868    -1.016665539719     1.007825032230
         H           -2.093818741337     3.306330522868    -1.778687539719     1.007825032230
         H            3.744226258663     4.992093522868    -0.080156539719     1.007825032230
         H            6.021014258663     4.229748522868     0.651371460281     1.007825032230
         H            5.927339258663    -0.024806477132     0.943873460281     1.007825032230
         H            4.813061258663    -4.598202477132     0.270732460281     1.007825032230
         H            2.368280258663    -4.637635477132    -0.044392539719     1.007825032230
         H            2.321329258663    -0.377060477132     0.399610460281     1.007825032230
         H            0.438405258663    -1.405007477132     0.093451460281     1.007825032230
         H           -0.805919741337    -0.835540477132    -1.672872539719     1.007825032230
         H           -3.011116741337     0.157006522868    -2.049340539719     1.007825032230
         H           -4.871634741337    -3.309621477132    -0.271719539719     1.007825032230
         H           -2.631378741337    -4.325194477132     0.052871460281     1.007825032230
         H           -5.514144741337    -0.257460477132    -2.266428539719     1.007825032230
         H           -6.262281741337    -1.586735477132    -1.376021539719     1.007825032230
         H           -5.045927741337     1.853725522868    -1.263387539719     1.007825032230
         H           -6.364836741337     2.408941522868     0.308535460281     1.007825032230
         H           -3.694761741337     2.887650522868     0.814329460281     1.007825032230
         H           -3.133006741337     0.949898522868     0.315217460281     1.007825032230
         H           -6.056273741337     2.274582522868     2.685926460281     1.007825032230
         H           -4.478121741337     3.001090522868     3.086095460281     1.007825032230
         H           -5.089103741337     1.641495522868     4.042666460281     1.007825032230
         H           -5.239123741337    -0.635759477132     3.229368460281     1.007825032230
         H           -3.875543741337    -1.105500477132     1.588302460281     1.007825032230
         H           -7.252188741337     0.402387522868     1.683638460281     1.007825032230
         H           -6.528403741337    -1.525851477132     1.061342460281     1.007825032230
         H            6.848040258663    -2.140892477132     1.627954460281     1.007825032230
         H            7.017084258663    -1.937081477132    -0.116812539719     1.007825032230
         H            6.901512258663    -3.543068477132     0.574961460281     1.007825032230

  Charge       = 0
  Multiplicity = 1
  Basis Set: 6-311++G**
    Blend: 6-311++G**
  Basis Set: (6-311++G** AUX)
    Blend: AUG-CC-PVTZ-JKFIT

    Orbital Energies [Eh]
    ---------------------

    Doubly Occupied:

       1A    -20.522132     2A    -15.604300     3A    -15.600947
       4A    -15.587351     5A    -15.573925     6A    -15.569388
       7A    -15.568786     8A    -15.554111     9A    -11.374983
      10A    -11.364262    11A    -11.334758    12A    -11.314129
      13A    -11.312076    14A    -11.309249    15A    -11.308376
      16A    -11.301925    17A    -11.301671    18A    -11.301147
      19A    -11.298601    20A    -11.292307    21A    -11.289910
      22A    -11.280828    23A    -11.277805    24A    -11.266242
      25A    -11.256968    26A    -11.256157    27A    -11.252888
      28A    -11.252764    29A    -11.250106    30A    -11.247233
      31A    -11.245916    32A    -11.245800    33A    -11.244634
      34A    -11.240083    35A    -11.233787    36A    -11.230031
      37A    -11.225179    38A     -1.386123    39A     -1.345189
      40A     -1.278874    41A     -1.252001    42A     -1.244582
      43A     -1.241914    44A     -1.209786    45A     -1.198868
      46A     -1.161691    47A     -1.139694    48A     -1.116391
      49A     -1.075674    50A     -1.059665    51A     -1.048696
      52A     -1.037450    53A     -1.023515    54A     -1.008066
      55A     -0.992487    56A     -0.976606    57A     -0.947083
      58A     -0.927684    59A     -0.926751    60A     -0.901127
      61A     -0.873245    62A     -0.865774    63A     -0.858421
      64A     -0.841815    65A     -0.834685    66A     -0.826862
      67A     -0.825098    68A     -0.805011    69A     -0.778152
      70A     -0.754590    71A     -0.738950    72A     -0.730759
      73A     -0.722193    74A     -0.703065    75A     -0.696928
      76A     -0.682962    77A     -0.673283    78A     -0.667522
      79A     -0.658214    80A     -0.655830    81A     -0.652042
      82A     -0.642784    83A     -0.637298    84A     -0.629981
      85A     -0.622846    86A     -0.618230    87A     -0.612903
      88A     -0.607328    89A     -0.607086    90A     -0.603069
      91A     -0.600660    92A     -0.596700    93A     -0.591323
      94A     -0.587089    95A     -0.581915    96A     -0.580940
      97A     -0.579542    98A     -0.574339    99A     -0.565074
     100A     -0.561739   101A     -0.547671   102A     -0.545207
     103A     -0.530161   104A     -0.528468   105A     -0.525187
     106A     -0.522573   107A     -0.514574   108A     -0.509460
     109A     -0.508621   110A     -0.506160   111A     -0.502886
     112A     -0.494014   113A     -0.484641   114A     -0.481302
     115A     -0.455488   116A     -0.451595   117A     -0.443801
     118A     -0.435740   119A     -0.427479   120A     -0.425249
     121A     -0.414454   122A     -0.410218   123A     -0.400565
     124A     -0.381895   125A     -0.374031   126A     -0.346645
     127A     -0.345073   128A     -0.342013   129A     -0.315116
     130A     -0.312357   131A     -0.290267

  @DF-RHF Final Energy: -1572.36711526089380

   => Energetics <=

    Nuclear Repulsion Energy =           3808.5284275650992640
    One-Electron Energy =               -9715.3714480171493051
    Two-Electron Energy =                4334.4759051911560164
    Total Energy =                      -1572.3671152608940247

  Dipole Moment: [D]
     X:     0.7332      Y:     6.8572      Z:    -0.0257     Total:     6.8964

  Basis Set: (6-311++G** AUX)
    Blend: AUG-CC-PVTZ-RI
	 Reference Energy          =   -1572.3671152608937973 [Eh]
	 Singles Energy            =      -0.0000000000000000 [Eh]
	 Same-Spin Energy          =      -1.4726581704609329 [Eh]
	 Opposite-Spin Energy      =      -4.0496083261980864 [Eh]
	 Correlation Energy        =      -5.5222664966590198 [Eh]
	 Total Energy              =   -1577.8893817575528828 [Eh]

	 ================> DF-SCS-MP2 Energies <==================
	-----------------------------------------------------------
	 SCS Same-Spin Scale       =       0.3333333333333333 [-]
	 SCS Opposite-Spin Scale   =       1.2000000000000000 [-]
	 SCS Same-Spin Energy      =      -0.4908860568203109 [Eh]
	 SCS Opposite-Spin Energy  =      -4.8595299914377037 [Eh]
	 SCS Correlation Energy    =      -5.3504160482580145 [Eh]
	 SCS Total Energy          =   -1577.7175313091518092 [Eh]
	-----------------------------------------------------------

*** Psi4 exiting successfully. Buy a developer a beer!
