                               Psi4 1.3.2 release

  ==> Input File <==

--------------------------------------------------------------------------
molecule {
0 1
 C   -7.727092   -3.998070    0.514824
 C   -6.658579   -3.409285   -0.173923
 C   -6.311352   -2.066618    0.077483
 C   -7.098917   -1.394486    1.044962
 N   -8.123192   -1.942819    1.711968
 C   -8.425352   -3.221754    1.445830
 C   -5.176877   -1.357237   -0.617877
 C   -4.333207   -1.929466   -1.585224
 C   -3.339275   -1.090759   -2.100468
 N   -3.155845    0.173106   -1.729690
 C   -4.017610    0.636579   -0.801456
 N   -5.001110   -0.074074   -0.247620
 N   -3.845647    1.945003   -0.415002
 C   -2.687918    2.771398   -0.186823
 C   -2.882422    4.141167    0.168712
 C   -1.732739    4.913595    0.396598
 C   -0.429513    4.417448    0.292628
 C   -0.253062    3.075353   -0.062347
 C   -1.382643    2.271342   -0.297572
 N    1.013994    2.424832   -0.231446
 C    2.290582    2.860172    0.041216
 C    3.449444    1.934066   -0.273364
 C    3.440858    1.013660   -1.334318
 C    4.550343    0.199687   -1.575000
 C    5.710050    0.285046   -0.781533
 C    5.707940    1.216886    0.273915
 C    4.605384    2.038498    0.518298
 C    6.916230   -0.620884   -1.036555
 N    6.969632   -1.947561   -0.396953
 C    6.064978   -3.012906   -0.885427
 C    4.737361   -3.145335   -0.095861
 N    4.906882   -3.284100    1.368847
 C    5.216832   -4.627320    1.870950
 C    5.773905   -2.182953    1.849583
 C    7.108491   -2.023080    1.075839
 O    2.515834    3.951638    0.539391
 C   -4.249321    4.787489    0.319715
 H   -8.011650   -5.030845    0.336664
 H   -6.118751   -4.016240   -0.896302
 H   -6.882877   -0.358536    1.289895
 H   -9.262069   -3.637956    2.004929
 H   -4.416302   -2.951048   -1.934587
 H   -2.645537   -1.461705   -2.854447
 H   -4.748481    2.383646   -0.310138
 H   -1.841066    5.961541    0.673591
 H    0.427724    5.053123    0.476256
 H   -1.258466    1.237260   -0.588010
 H    0.945371    1.451638   -0.492968
 H    2.568298    0.947164   -1.979436
 H    4.511012   -0.507139   -2.404040
 H    6.582877    1.315530    0.915983
 H    4.619186    2.765858    1.326047
 H    7.003442   -0.785710   -2.120507
 H    7.823329   -0.082632   -0.724411
 H    5.912293   -2.927500   -1.927054
 H    6.819358   -4.386330   -0.657499
 H    4.032945   -4.350867   -0.607952
 H    4.005656   -2.144849   -0.304211
 H    6.198097   -4.963941    1.517800
 H    4.456396   -5.341285    1.534527
 H    5.216426   -4.630247    2.966943
 H    6.050395   -2.375919    3.184509
 H    5.022025   -0.961631    1.717444
 H    7.926450   -3.343164    1.389114
 H    7.697642   -1.203242    1.444950
 H   -4.858252    4.269045    1.073790
 H   -4.808236    4.770296   -0.626539
 H   -4.194884    5.839173    0.632857
}
memory 20GB
set_num_threads(6)
psi4_io.set_default_path("/scratch/bdw2292")
set freeze_core True
E, wfn = energy('mp2/6-311++G**',return_wfn=True)
oeprop(wfn,"WIBERG_LOWDIN_INDICES")
clean()
--------------------------------------------------------------------------

    Molecular point group: c1

    Geometry (in Angstrom), charge = 0, multiplicity = 1:

       Center              X                  Y                   Z               Mass
    ------------   -----------------  -----------------  -----------------  -----------------
         C           -7.654915474577    -4.070014294265     0.533978724754    12.000000000000
         C           -6.586402474577    -3.481229294265    -0.154768275246    12.000000000000
         C           -6.239175474577    -2.138562294265     0.096637724754    12.000000000000
         C           -7.026740474577    -1.466430294265     1.064116724754    12.000000000000
         N           -8.051015474577    -2.014763294265     1.731122724754    14.003074004430
         C           -8.353175474577    -3.293698294265     1.464984724754    12.000000000000
         C           -5.104700474577    -1.429181294265    -0.598722275246    12.000000000000
         C           -4.261030474577    -2.001410294265    -1.566069275246    12.000000000000
         C           -3.267098474577    -1.162703294265    -2.081313275246    12.000000000000
         N           -3.083668474577     0.101161705735    -1.710535275246    14.003074004430
         C           -3.945433474577     0.564634705735    -0.782301275246    12.000000000000
         N           -4.928933474577    -0.146018294265    -0.228465275246    14.003074004430
         N           -3.773470474577     1.873058705735    -0.395847275246    14.003074004430
         C           -2.615741474577     2.699453705735    -0.167668275246    12.000000000000
         C           -2.810245474577     4.069222705735     0.187866724754    12.000000000000
         C           -1.660562474577     4.841650705735     0.415752724754    12.000000000000
         C           -0.357336474577     4.345503705735     0.311782724754    12.000000000000
         C           -0.180885474577     3.003408705735    -0.043192275246    12.000000000000
         C           -1.310466474577     2.199397705735    -0.278417275246    12.000000000000
         N            1.086170525423     2.352887705735    -0.212291275246    14.003074004430
         C            2.362758525423     2.788227705735     0.060370724754    12.000000000000
         C            3.521620525423     1.862121705735    -0.254209275246    12.000000000000
         C            3.513034525423     0.941715705735    -1.315163275246    12.000000000000
         C            4.622519525423     0.127742705735    -1.555845275246    12.000000000000
         C            5.782226525423     0.213101705735    -0.762378275246    12.000000000000
         C            5.780116525423     1.144941705735     0.293069724754    12.000000000000
         C            4.677560525423     1.966553705735     0.537452724754    12.000000000000
         C            6.988406525423    -0.692828294265    -1.017400275246    12.000000000000
         N            7.041808525423    -2.019505294265    -0.377798275246    14.003074004430
         C            6.137154525423    -3.084850294265    -0.866272275246    12.000000000000
         C            4.809537525423    -3.217279294265    -0.076706275246    12.000000000000
         N            4.979058525423    -3.356044294265     1.388001724754    14.003074004430
         C            5.289008525423    -4.699264294265     1.890104724754    12.000000000000
         C            5.846081525423    -2.254897294265     1.868737724754    12.000000000000
         C            7.180667525423    -2.095024294265     1.094993724754    12.000000000000
         O            2.588010525423     3.879693705735     0.558545724754    15.994914619570
         C           -4.177144474577     4.715544705735     0.338869724754    12.000000000000
         H           -7.939473474577    -5.102789294265     0.355818724754     1.007825032230
         H           -6.046574474577    -4.088184294265    -0.877147275246     1.007825032230
         H           -6.810700474577    -0.430480294265     1.309049724754     1.007825032230
         H           -9.189892474577    -3.709900294265     2.024083724754     1.007825032230
         H           -4.344125474577    -3.022992294265    -1.915432275246     1.007825032230
         H           -2.573360474577    -1.533649294265    -2.835292275246     1.007825032230
         H           -4.676304474577     2.311701705735    -0.290983275246     1.007825032230
         H           -1.768889474577     5.889596705735     0.692745724754     1.007825032230
         H            0.499900525423     4.981178705735     0.495410724754     1.007825032230
         H           -1.186289474577     1.165315705735    -0.568855275246     1.007825032230
         H            1.017547525423     1.379693705735    -0.473813275246     1.007825032230
         H            2.640474525423     0.875219705735    -1.960281275246     1.007825032230
         H            4.583188525423    -0.579083294265    -2.384885275246     1.007825032230
         H            6.655053525423     1.243585705735     0.935137724754     1.007825032230
         H            4.691362525423     2.693913705735     1.345201724754     1.007825032230
         H            7.075618525423    -0.857654294265    -2.101352275246     1.007825032230
         H            7.895505525423    -0.154576294265    -0.705256275246     1.007825032230
         H            5.984469525423    -2.999444294265    -1.907899275246     1.007825032230
         H            6.891534525423    -4.458274294265    -0.638344275246     1.007825032230
         H            4.105121525423    -4.422811294265    -0.588797275246     1.007825032230
         H            4.077832525423    -2.216793294265    -0.285056275246     1.007825032230
         H            6.270273525423    -5.035885294265     1.536954724754     1.007825032230
         H            4.528572525423    -5.413229294265     1.553681724754     1.007825032230
         H            5.288602525423    -4.702191294265     2.986097724754     1.007825032230
         H            6.122571525423    -2.447863294265     3.203663724754     1.007825032230
         H            5.094201525423    -1.033575294265     1.736598724754     1.007825032230
         H            7.998626525423    -3.415108294265     1.408268724754     1.007825032230
         H            7.769818525423    -1.275186294265     1.464104724754     1.007825032230
         H           -4.786075474577     4.197100705735     1.092944724754     1.007825032230
         H           -4.736059474577     4.698351705735    -0.607384275246     1.007825032230
         H           -4.122707474577     5.767228705735     0.652011724754     1.007825032230

  Charge       = 0
  Multiplicity = 1
  Basis Set: 6-311++G**
    Blend: 6-311++G**
  Basis Set: (6-311++G** AUX)
    Blend: AUG-CC-PVTZ-JKFIT

    Orbital Energies [Eh]
    ---------------------

    Doubly Occupied:

       1A    -20.525541     2A    -15.606531     3A    -15.592754
       4A    -15.579023     5A    -15.576876     6A    -15.574211
       7A    -15.572188     8A    -15.562144     9A    -11.370378
      10A    -11.369549    11A    -11.332662    12A    -11.324556
      13A    -11.318952    14A    -11.312690    15A    -11.311596
      16A    -11.310056    17A    -11.303165    18A    -11.294737
      19A    -11.293238    20A    -11.291213    21A    -11.287455
      22A    -11.283104    23A    -11.273300    24A    -11.266752
      25A    -11.266639    26A    -11.265482    27A    -11.258316
      28A    -11.257871    29A    -11.257430    30A    -11.254732
      31A    -11.254444    32A    -11.247007    33A    -11.244682
      34A    -11.238755    35A    -11.234585    36A    -11.232906
      37A    -11.222460    38A     -1.392100    39A     -1.345014
      40A     -1.269378    41A     -1.253198    42A     -1.252725
      43A     -1.240768    44A     -1.209575    45A     -1.206739
      46A     -1.171105    47A     -1.140275    48A     -1.109826
      49A     -1.073020    50A     -1.065679    51A     -1.043632
      52A     -1.038491    53A     -1.033590    54A     -1.006975
      55A     -1.003478    56A     -0.983634    57A     -0.947621
      58A     -0.932017    59A     -0.921093    60A     -0.901602
      61A     -0.872061    62A     -0.865836    63A     -0.855734
      64A     -0.850963    65A     -0.839051    66A     -0.836970
      67A     -0.823818    68A     -0.811002    69A     -0.779297
      70A     -0.754395    71A     -0.739188    72A     -0.734562
      73A     -0.717809    74A     -0.710938    75A     -0.706032
      76A     -0.686237    77A     -0.678016    78A     -0.667632
      79A     -0.664774    80A     -0.655766    81A     -0.653662
      82A     -0.651198    83A     -0.639477    84A     -0.637309
      85A     -0.626800    86A     -0.619530    87A     -0.611773
      88A     -0.609501    89A     -0.606133    90A     -0.604209
      91A     -0.599795    92A     -0.594845    93A     -0.590356
      94A     -0.586030    95A     -0.585329    96A     -0.583927
      97A     -0.579634    98A     -0.579102    99A     -0.563696
     100A     -0.551529   101A     -0.547732   102A     -0.546512
     103A     -0.538156   104A     -0.536444   105A     -0.528986
     106A     -0.524850   107A     -0.513826   108A     -0.511391
     109A     -0.508413   110A     -0.508073   111A     -0.505723
     112A     -0.501346   113A     -0.486612   114A     -0.478696
     115A     -0.448879   116A     -0.446611   117A     -0.434352
     118A     -0.433862   119A     -0.427806   120A     -0.425215
     121A     -0.413181   122A     -0.397485   123A     -0.395394
     124A     -0.386917   125A     -0.374279   126A     -0.355202
     127A     -0.350863   128A     -0.340056   129A     -0.318352
     130A     -0.314867   131A     -0.288675

  @DF-RHF Final Energy: -1572.28844561990786

   => Energetics <=

    Nuclear Repulsion Energy =           3532.6814371315276730
    One-Electron Energy =               -9163.0953870213688788
    Two-Electron Energy =                4058.1255042699335718
    Total Energy =                      -1572.2884456199076340

  Dipole Moment: [D]
     X:    -1.0452      Y:    -4.8014      Z:    -3.2036     Total:     5.8659

  Basis Set: (6-311++G** AUX)
    Blend: AUG-CC-PVTZ-RI
	 Reference Energy          =   -1572.2884456199078613 [Eh]
	 Singles Energy            =      -0.0000000000000000 [Eh]
	 Same-Spin Energy          =      -1.4694303598628553 [Eh]
	 Opposite-Spin Energy      =      -4.0484044891199611 [Eh]
	 Correlation Energy        =      -5.5178348489828162 [Eh]
	 Total Energy              =   -1577.8062804688906908 [Eh]

	 ================> DF-SCS-MP2 Energies <==================
	-----------------------------------------------------------
	 SCS Same-Spin Scale       =       0.3333333333333333 [-]
	 SCS Opposite-Spin Scale   =       1.2000000000000000 [-]
	 SCS Same-Spin Energy      =      -0.4898101199542851 [Eh]
	 SCS Opposite-Spin Energy  =      -4.8580853869439533 [Eh]
	 SCS Correlation Energy    =      -5.3478955068982383 [Eh]
	 SCS Total Energy          =   -1577.6363411268062009 [Eh]
	-----------------------------------------------------------

*** Psi4 exiting successfully. Buy a developer a beer!
