                               Psi4 1.3.2 release

  ==> Input File <==

--------------------------------------------------------------------------
molecule {
0 1
 C   -1.206723    5.022393   -0.137051
 C   -2.500788    4.547241    0.116381
 C   -2.734463    3.161163    0.211258
 C   -1.592428    2.333657    0.077866
 N   -0.348977    2.767537   -0.166333
 C   -0.169625    4.093023   -0.276572
 C   -4.098910    2.551245    0.418658
 C   -5.278757    3.270057    0.674127
 C   -6.444982    2.505510    0.799561
 N   -6.489502    1.180080    0.683041
 C   -5.312104    0.571677    0.434154
 N   -4.147272    1.210333    0.309802
 N   -5.374622   -0.804687    0.302827
 C   -4.377489   -1.832840    0.137439
 C   -4.716246   -3.191868    0.417022
 C   -3.707277   -4.155481    0.251417
 C   -2.399364   -3.856970   -0.147294
 C   -2.078262   -2.523820   -0.425238
 C   -3.077102   -1.544741   -0.296880
 N   -0.787473   -2.039294   -0.824657
 C    0.440173   -2.658228   -0.886845
 C    1.684528   -1.829602   -1.171290
 C    2.882724   -2.545278   -1.349037
 C    4.080356   -1.881952   -1.623851
 C    4.138299   -0.479257   -1.721316
 C    2.933658    0.228190   -1.553720
 C    1.729263   -0.428187   -1.285748
 C    5.463042    0.240803   -1.979446
 N    6.305676    0.654096   -0.844116
 C    6.991638   -0.390637   -0.049042
 C    6.225310   -0.847101    1.219658
 N    5.819994    0.264510    2.112897
 C    6.844318    0.773034    3.033292
 C    5.084774    1.272710    1.312149
 C    5.838792    1.745204    0.041784
 O    0.547738   -3.866890   -0.735518
 C   -6.096405   -3.631562    0.876542
 H   -1.005741    6.085711   -0.229645
 H   -3.309405    5.268334    0.207575
 H   -1.679984    1.257859    0.188788
 H    0.852594    4.411699   -0.475922
 H   -5.331118    4.346975    0.777800
 H   -7.412810    2.963347    1.002842
 H   -6.322073   -1.111117    0.463997
 H   -3.935259   -5.202070    0.451086
 H   -1.643392   -4.627064   -0.233776
 H   -2.843050   -0.520231   -0.532699
 H   -0.779694   -1.058359   -1.059393
 H    2.863069   -3.629433   -1.266358
 H    4.989165   -2.470659   -1.745327
 H    2.931485    1.316271   -1.613476
 H    0.830958    0.164327   -1.134848
 H    6.084040   -0.405152   -2.616399
 H    5.250560    1.148308   -2.561944
 H    7.253995   -1.308272   -0.724593
 H    8.275255    0.176261    0.389643
 H    6.916198   -1.672254    1.877892
 H    5.041179   -1.513393    0.832903
 H    7.671966    1.234373    2.482994
 H    7.240621   -0.044121    3.647503
 H    6.409751    1.519028    3.708851
 H    4.804639    2.276456    2.061967
 H    3.867122    0.684272    0.936176
 H    7.048914    2.477183    0.495828
 H    5.203685    2.505739   -0.556232
 H   -6.879459   -3.405552    0.138650
 H   -6.378243   -3.135256    1.809342
 H   -6.155681   -4.706556    1.066487
}
memory 20GB
set_num_threads(6)
psi4_io.set_default_path("/scratch/bdw2292")
set freeze_core True
E, wfn = energy('mp2/6-311+G*',return_wfn=True)
oeprop(wfn,"WIBERG_LOWDIN_INDICES")
clean()
--------------------------------------------------------------------------

    Molecular point group: c1

    Geometry (in Angstrom), charge = 0, multiplicity = 1:

       Center              X                  Y                   Z               Mass
    ------------   -----------------  -----------------  -----------------  -----------------
         C           -1.127976759666     5.037220209742    -0.103671266941    12.000000000000
         C           -2.422041759666     4.562068209742     0.149760733059    12.000000000000
         C           -2.655716759666     3.175990209742     0.244637733059    12.000000000000
         C           -1.513681759666     2.348484209742     0.111245733059    12.000000000000
         N           -0.270230759666     2.782364209742    -0.132953266941    14.003074004430
         C           -0.090878759666     4.107850209742    -0.243192266941    12.000000000000
         C           -4.020163759666     2.566072209742     0.452037733059    12.000000000000
         C           -5.200010759666     3.284884209742     0.707506733059    12.000000000000
         C           -6.366235759666     2.520337209742     0.832940733059    12.000000000000
         N           -6.410755759666     1.194907209742     0.716420733059    14.003074004430
         C           -5.233357759666     0.586504209742     0.467533733059    12.000000000000
         N           -4.068525759666     1.225160209742     0.343181733059    14.003074004430
         N           -5.295875759666    -0.789859790258     0.336206733059    14.003074004430
         C           -4.298742759666    -1.818012790258     0.170818733059    12.000000000000
         C           -4.637499759666    -3.177040790258     0.450401733059    12.000000000000
         C           -3.628530759666    -4.140653790258     0.284796733059    12.000000000000
         C           -2.320617759666    -3.842142790258    -0.113914266941    12.000000000000
         C           -1.999515759666    -2.508992790258    -0.391858266941    12.000000000000
         C           -2.998355759666    -1.529913790258    -0.263500266941    12.000000000000
         N           -0.708726759666    -2.024466790258    -0.791277266941    14.003074004430
         C            0.518919240334    -2.643400790258    -0.853465266941    12.000000000000
         C            1.763274240334    -1.814774790258    -1.137910266941    12.000000000000
         C            2.961470240334    -2.530450790258    -1.315657266941    12.000000000000
         C            4.159102240334    -1.867124790258    -1.590471266941    12.000000000000
         C            4.217045240334    -0.464429790258    -1.687936266941    12.000000000000
         C            3.012404240334     0.243017209742    -1.520340266941    12.000000000000
         C            1.808009240334    -0.413359790258    -1.252368266941    12.000000000000
         C            5.541788240334     0.255630209742    -1.946066266941    12.000000000000
         N            6.384422240334     0.668923209742    -0.810736266941    14.003074004430
         C            7.070384240334    -0.375809790258    -0.015662266941    12.000000000000
         C            6.304056240334    -0.832273790258     1.253037733059    12.000000000000
         N            5.898740240334     0.279337209742     2.146276733059    14.003074004430
         C            6.923064240334     0.787861209742     3.066671733059    12.000000000000
         C            5.163520240334     1.287537209742     1.345528733059    12.000000000000
         C            5.917538240334     1.760031209742     0.075163733059    12.000000000000
         O            0.626484240334    -3.852062790258    -0.702138266941    15.994914619570
         C           -6.017658759666    -3.616734790258     0.909921733059    12.000000000000
         H           -0.926994759666     6.100538209742    -0.196265266941     1.007825032230
         H           -3.230658759666     5.283161209742     0.240954733059     1.007825032230
         H           -1.601237759666     1.272686209742     0.222167733059     1.007825032230
         H            0.931340240334     4.426526209742    -0.442542266941     1.007825032230
         H           -5.252371759666     4.361802209742     0.811179733059     1.007825032230
         H           -7.334063759666     2.978174209742     1.036221733059     1.007825032230
         H           -6.243326759666    -1.096289790258     0.497376733059     1.007825032230
         H           -3.856512759666    -5.187242790258     0.484465733059     1.007825032230
         H           -1.564645759666    -4.612236790258    -0.200396266941     1.007825032230
         H           -2.764303759666    -0.505403790258    -0.499319266941     1.007825032230
         H           -0.700947759666    -1.043531790258    -1.026013266941     1.007825032230
         H            2.941815240334    -3.614605790258    -1.232978266941     1.007825032230
         H            5.067911240334    -2.455831790258    -1.711947266941     1.007825032230
         H            3.010231240334     1.331098209742    -1.580096266941     1.007825032230
         H            0.909704240334     0.179154209742    -1.101468266941     1.007825032230
         H            6.162786240334    -0.390324790258    -2.583019266941     1.007825032230
         H            5.329306240334     1.163135209742    -2.528564266941     1.007825032230
         H            7.332741240334    -1.293444790258    -0.691213266941     1.007825032230
         H            8.354001240334     0.191088209742     0.423022733059     1.007825032230
         H            6.994944240334    -1.657426790258     1.911271733059     1.007825032230
         H            5.119925240334    -1.498565790258     0.866282733059     1.007825032230
         H            7.750712240334     1.249200209742     2.516373733059     1.007825032230
         H            7.319367240334    -0.029293790258     3.680882733059     1.007825032230
         H            6.488497240334     1.533855209742     3.742230733059     1.007825032230
         H            4.883385240334     2.291283209742     2.095346733059     1.007825032230
         H            3.945868240334     0.699099209742     0.969555733059     1.007825032230
         H            7.127660240334     2.492010209742     0.529207733059     1.007825032230
         H            5.282431240334     2.520566209742    -0.522852266941     1.007825032230
         H           -6.800712759666    -3.390724790258     0.172029733059     1.007825032230
         H           -6.299496759666    -3.120428790258     1.842721733059     1.007825032230
         H           -6.076934759666    -4.691728790258     1.099866733059     1.007825032230

  Charge       = 0
  Multiplicity = 1
  Basis Set: 6-311+G*
    Blend: 6-311+G*
  Basis Set: (6-311+G* AUX)
    Blend: HEAVY-AUG-CC-PVTZ-JKFIT

    Orbital Energies [Eh]
    ---------------------

    Doubly Occupied:

       1A    -20.518394     2A    -15.603841     3A    -15.602275
       4A    -15.587032     5A    -15.573256     6A    -15.568598
       7A    -15.568316     8A    -15.553569     9A    -11.374519
      10A    -11.365571    11A    -11.334725    12A    -11.314073
      13A    -11.308923    14A    -11.307821    15A    -11.305682
      16A    -11.303521    17A    -11.301959    18A    -11.301315
      19A    -11.300955    20A    -11.293418    21A    -11.290318
      22A    -11.280599    23A    -11.277719    24A    -11.266471
      25A    -11.258398    26A    -11.257160    27A    -11.256988
      28A    -11.252951    29A    -11.247667    30A    -11.246490
      31A    -11.246281    32A    -11.245366    33A    -11.243658
      34A    -11.239354    35A    -11.233757    36A    -11.231580
      37A    -11.224238    38A     -1.385737    39A     -1.345057
      40A     -1.278820    41A     -1.249952    42A     -1.243759
      43A     -1.241232    44A     -1.209459    45A     -1.198235
      46A     -1.161218    47A     -1.139609    48A     -1.116371
      49A     -1.075482    50A     -1.058827    51A     -1.048634
      52A     -1.037933    53A     -1.023143    54A     -1.007617
      55A     -0.991783    56A     -0.975824    57A     -0.946213
      58A     -0.927281    59A     -0.926528    60A     -0.901074
      61A     -0.873131    62A     -0.865581    63A     -0.858264
      64A     -0.842133    65A     -0.834756    66A     -0.826854
      67A     -0.824906    68A     -0.804845    69A     -0.778578
      70A     -0.755309    71A     -0.741291    72A     -0.731230
      73A     -0.722994    74A     -0.700188    75A     -0.694799
      76A     -0.683386    77A     -0.673786    78A     -0.667697
      79A     -0.658534    80A     -0.655280    81A     -0.652287
      82A     -0.641949    83A     -0.635817    84A     -0.630845
      85A     -0.622646    86A     -0.617011    87A     -0.611875
      88A     -0.607633    89A     -0.603596    90A     -0.602666
      91A     -0.600346    92A     -0.596528    93A     -0.593152
      94A     -0.590465    95A     -0.586197    96A     -0.581056
      97A     -0.579463    98A     -0.574240    99A     -0.564374
     100A     -0.561746   101A     -0.548659   102A     -0.545245
     103A     -0.532175   104A     -0.524449   105A     -0.523208
     106A     -0.521637   107A     -0.513578   108A     -0.509887
     109A     -0.505704   110A     -0.504537   111A     -0.504142
     112A     -0.493201   113A     -0.485465   114A     -0.480456
     115A     -0.459753   116A     -0.451743   117A     -0.442972
     118A     -0.433008   119A     -0.427871   120A     -0.425045
     121A     -0.414367   122A     -0.405624   123A     -0.400276
     124A     -0.380416   125A     -0.373405   126A     -0.346672
     127A     -0.345428   128A     -0.339870   129A     -0.314740
     130A     -0.311114   131A     -0.289138

  @DF-RHF Final Energy: -1572.31046393004021

   => Energetics <=

    Nuclear Repulsion Energy =           3699.6320025598924985
    One-Electron Energy =               -9497.5294126421049441
    Two-Electron Energy =                4225.5869461521724588
    Total Energy =                      -1572.3104639300399867

  Dipole Moment: [D]
     X:    -2.2972      Y:     6.5442      Z:    -0.1776     Total:     6.9380

  Basis Set: (6-311+G* AUX)
    Blend: HEAVY-AUG-CC-PVTZ-RI
	 Reference Energy          =   -1572.3104639300402141 [Eh]
	 Singles Energy            =      -0.0000000000000000 [Eh]
	 Same-Spin Energy          =      -1.4481763461585990 [Eh]
	 Opposite-Spin Energy      =      -3.8915378735852268 [Eh]
	 Correlation Energy        =      -5.3397142197438257 [Eh]
	 Total Energy              =   -1577.6501781497840966 [Eh]

	 ================> DF-SCS-MP2 Energies <==================
	-----------------------------------------------------------
	 SCS Same-Spin Scale       =       0.3333333333333333 [-]
	 SCS Opposite-Spin Scale   =       1.2000000000000000 [-]
	 SCS Same-Spin Energy      =      -0.4827254487195330 [Eh]
	 SCS Opposite-Spin Energy  =      -4.6698454483022722 [Eh]
	 SCS Correlation Energy    =      -5.1525708970218052 [Eh]
	 SCS Total Energy          =   -1577.4630348270620743 [Eh]
	-----------------------------------------------------------

*** Psi4 exiting successfully. Buy a developer a beer!
