                               Psi4 1.3.2 release

  ==> Input File <==

--------------------------------------------------------------------------
molecule {
0 1
 C    0.530732    3.775948    1.694738
 C   -0.852221    3.755779    1.473666
 C   -1.500942    2.537651    1.190015
 C   -0.671073    1.388590    1.172914
 N    0.651715    1.387796    1.378710
 C    1.236753    2.570051    1.628904
 C   -2.973911    2.431532    0.881446
 C   -3.882546    3.502729    0.858301
 C   -5.194678    3.180040    0.493511
 N   -5.607813    1.958285    0.168100
 C   -4.665437    0.993484    0.214331
 N   -3.393993    1.191083    0.567307
 N   -5.089515   -0.276008   -0.133569
 C   -4.427140   -1.552095   -0.149405
 C   -5.197169   -2.739980    0.036593
 C   -4.505866   -3.962169   -0.003878
 C   -3.123408   -4.072218   -0.194786
 C   -2.384677   -2.895184   -0.352019
 C   -3.044807   -1.658624   -0.344576
 N   -0.974110   -2.841016   -0.488247
 C   -0.198607   -2.530253   -1.577610
 C    1.288008   -2.302728   -1.366347
 C    2.009310   -2.761323   -0.250868
 C    3.376394   -2.502696   -0.130119
 C    4.074314   -1.769203   -1.107316
 C    3.331955   -1.269616   -2.194205
 C    1.969284   -1.544240   -2.334418
 C    5.566628   -1.471318   -0.955150
 N    6.015145   -0.253017   -0.260034
 C    5.878056   -0.182897    1.211488
 C    4.652610    0.592899    1.755603
 N    4.496718    1.950184    1.183796
 C    5.341325    3.003087    1.764151
 C    4.516533    1.837153   -0.294770
 C    5.733929    1.067186   -0.870015
 O   -0.680708   -2.378566   -2.687344
 C   -6.699324   -2.734640    0.263345
 H    1.055897    4.704199    1.898513
 H   -1.390947    4.699568    1.506609
 H   -1.102910    0.412236    0.977412
 H    2.313567    2.553155    1.775675
 H   -3.617976    4.527190    1.089488
 H   -5.958731    3.956101    0.451618
 H   -6.085102   -0.275709   -0.298424
 H   -5.061205   -4.889797    0.130363
 H   -2.629117   -5.035908   -0.196175
 H   -2.472202   -0.753017   -0.482073
 H   -0.571379   -2.985995    0.426637
 H    1.510074   -3.349288    0.513852
 H    3.906226   -2.887983    0.741304
 H    3.824836   -0.675659   -2.963478
 H    1.409872   -1.171743   -3.189184
 H    6.033933   -2.316699   -0.429305
 H    6.004683   -1.430701   -1.963542
 H    5.871918   -1.478147    1.761453
 H    7.125734    0.548453    1.752096
 H    4.650595    0.647961    2.822735
 H    3.392661   -0.206308    1.334580
 H    6.402475    2.807057    1.574146
 H    5.181236    3.059907    2.847073
 H    5.079001    3.976758    1.334127
 H    4.420787    2.852199   -0.747024
 H    3.245425    1.023899   -0.695916
 H    6.981945    1.981296   -0.566242
 H    5.665523    0.974630   -1.993160
 H   -7.236433   -2.390716   -0.631939
 H   -6.981047   -2.070290    1.092752
 H   -7.098760   -3.728366    0.509828
}
memory 20GB
set_num_threads(6)
psi4_io.set_default_path("/scratch/bdw2292")
set freeze_core True
E, wfn = energy('mp2/6-311++G**',return_wfn=True)
oeprop(wfn,"WIBERG_LOWDIN_INDICES")
clean()
--------------------------------------------------------------------------

    Molecular point group: c1

    Geometry (in Angstrom), charge = 0, multiplicity = 1:

       Center              X                  Y                   Z               Mass
    ------------   -----------------  -----------------  -----------------  -----------------
         C            0.589893383310     3.887547317686     1.630926065165    12.000000000000
         C           -0.793059616690     3.867378317686     1.409854065165    12.000000000000
         C           -1.441780616690     2.649250317686     1.126203065165    12.000000000000
         C           -0.611911616690     1.500189317686     1.109102065165    12.000000000000
         N            0.710876383310     1.499395317686     1.314898065165    14.003074004430
         C            1.295914383310     2.681650317686     1.565092065165    12.000000000000
         C           -2.914749616690     2.543131317686     0.817634065165    12.000000000000
         C           -3.823384616690     3.614328317686     0.794489065165    12.000000000000
         C           -5.135516616690     3.291639317686     0.429699065165    12.000000000000
         N           -5.548651616690     2.069884317686     0.104288065165    14.003074004430
         C           -4.606275616690     1.105083317686     0.150519065165    12.000000000000
         N           -3.334831616690     1.302682317686     0.503495065165    14.003074004430
         N           -5.030353616690    -0.164408682314    -0.197380934835    14.003074004430
         C           -4.367978616690    -1.440495682314    -0.213216934835    12.000000000000
         C           -5.138007616690    -2.628380682314    -0.027218934835    12.000000000000
         C           -4.446704616690    -3.850569682314    -0.067689934835    12.000000000000
         C           -3.064246616690    -3.960618682314    -0.258597934835    12.000000000000
         C           -2.325515616690    -2.783584682314    -0.415830934835    12.000000000000
         C           -2.985645616690    -1.547024682314    -0.408387934835    12.000000000000
         N           -0.914948616690    -2.729416682314    -0.552058934835    14.003074004430
         C           -0.139445616690    -2.418653682314    -1.641421934835    12.000000000000
         C            1.347169383310    -2.191128682314    -1.430158934835    12.000000000000
         C            2.068471383310    -2.649723682314    -0.314679934835    12.000000000000
         C            3.435555383310    -2.391096682314    -0.193930934835    12.000000000000
         C            4.133475383310    -1.657603682314    -1.171127934835    12.000000000000
         C            3.391116383310    -1.158016682314    -2.258016934835    12.000000000000
         C            2.028445383310    -1.432640682314    -2.398229934835    12.000000000000
         C            5.625789383310    -1.359718682314    -1.018961934835    12.000000000000
         N            6.074306383310    -0.141417682314    -0.323845934835    14.003074004430
         C            5.937217383310    -0.071297682314     1.147676065165    12.000000000000
         C            4.711771383310     0.704498317686     1.691791065165    12.000000000000
         N            4.555879383310     2.061783317686     1.119984065165    14.003074004430
         C            5.400486383310     3.114686317686     1.700339065165    12.000000000000
         C            4.575694383310     1.948752317686    -0.358581934835    12.000000000000
         C            5.793090383310     1.178785317686    -0.933826934835    12.000000000000
         O           -0.621546616690    -2.266966682314    -2.751155934835    15.994914619570
         C           -6.640162616690    -2.623040682314     0.199533065165    12.000000000000
         H            1.115058383310     4.815798317686     1.834701065165     1.007825032230
         H           -1.331785616690     4.811167317686     1.442797065165     1.007825032230
         H           -1.043748616690     0.523835317686     0.913600065165     1.007825032230
         H            2.372728383310     2.664754317686     1.711863065165     1.007825032230
         H           -3.558814616690     4.638789317686     1.025676065165     1.007825032230
         H           -5.899569616690     4.067700317686     0.387806065165     1.007825032230
         H           -6.025940616690    -0.164109682314    -0.362235934835     1.007825032230
         H           -5.002043616690    -4.778197682314     0.066551065165     1.007825032230
         H           -2.569955616690    -4.924308682314    -0.259986934835     1.007825032230
         H           -2.413040616690    -0.641417682314    -0.545884934835     1.007825032230
         H           -0.512217616690    -2.874395682314     0.362825065165     1.007825032230
         H            1.569235383310    -3.237688682314     0.450040065165     1.007825032230
         H            3.965387383310    -2.776383682314     0.677492065165     1.007825032230
         H            3.883997383310    -0.564059682314    -3.027289934835     1.007825032230
         H            1.469033383310    -1.060143682314    -3.252995934835     1.007825032230
         H            6.093094383310    -2.205099682314    -0.493116934835     1.007825032230
         H            6.063844383310    -1.319101682314    -2.027353934835     1.007825032230
         H            5.931079383310    -1.366547682314     1.697641065165     1.007825032230
         H            7.184895383310     0.660052317686     1.688284065165     1.007825032230
         H            4.709756383310     0.759560317686     2.758923065165     1.007825032230
         H            3.451822383310    -0.094708682314     1.270768065165     1.007825032230
         H            6.461636383310     2.918656317686     1.510334065165     1.007825032230
         H            5.240397383310     3.171506317686     2.783261065165     1.007825032230
         H            5.138162383310     4.088357317686     1.270315065165     1.007825032230
         H            4.479948383310     2.963798317686    -0.810835934835     1.007825032230
         H            3.304586383310     1.135498317686    -0.759727934835     1.007825032230
         H            7.041106383310     2.092895317686    -0.630053934835     1.007825032230
         H            5.724684383310     1.086229317686    -2.056971934835     1.007825032230
         H           -7.177271616690    -2.279116682314    -0.695750934835     1.007825032230
         H           -6.921885616690    -1.958690682314     1.028940065165     1.007825032230
         H           -7.039598616690    -3.616766682314     0.446016065165     1.007825032230

  Charge       = 0
  Multiplicity = 1
  Basis Set: 6-311++G**
    Blend: 6-311++G**
  Basis Set: (6-311++G** AUX)
    Blend: AUG-CC-PVTZ-JKFIT

    Orbital Energies [Eh]
    ---------------------

    Doubly Occupied:

       1A    -20.515334     2A    -15.596107     3A    -15.588485
       4A    -15.577924     5A    -15.566689     6A    -15.565714
       7A    -15.564975     8A    -15.558305     9A    -11.365865
      10A    -11.361903    11A    -11.339537    12A    -11.323558
      13A    -11.319462    14A    -11.306033    15A    -11.305090
      16A    -11.299207    17A    -11.295483    18A    -11.282268
      19A    -11.280531    20A    -11.279954    21A    -11.275668
      22A    -11.273327    23A    -11.262956    24A    -11.258377
      25A    -11.257004    26A    -11.256890    27A    -11.255742
      28A    -11.254068    29A    -11.247500    30A    -11.246793
      31A    -11.246236    32A    -11.244738    33A    -11.241978
      34A    -11.241518    35A    -11.237459    36A    -11.237015
      37A    -11.230019    38A     -1.382365    39A     -1.336583
      40A     -1.258392    41A     -1.251517    42A     -1.246951
      43A     -1.235794    44A     -1.209387    45A     -1.200154
      46A     -1.161274    47A     -1.138555    48A     -1.100768
      49A     -1.064502    50A     -1.057309    51A     -1.037639
      52A     -1.032609    53A     -1.023372    54A     -1.006805
      55A     -1.001390    56A     -0.981566    57A     -0.947501
      58A     -0.931186    59A     -0.912918    60A     -0.893066
      61A     -0.869082    62A     -0.857678    63A     -0.848663
      64A     -0.845701    65A     -0.839946    66A     -0.830686
      67A     -0.818463    68A     -0.805800    69A     -0.782816
      70A     -0.745746    71A     -0.739462    72A     -0.724479
      73A     -0.710760    74A     -0.703854    75A     -0.690150
      76A     -0.675412    77A     -0.670347    78A     -0.659339
      79A     -0.656186    80A     -0.652015    81A     -0.649107
      82A     -0.646418    83A     -0.635547    84A     -0.632141
      85A     -0.625333    86A     -0.620314    87A     -0.618974
      88A     -0.610078    89A     -0.608658    90A     -0.599548
      91A     -0.594907    92A     -0.592553    93A     -0.588195
      94A     -0.582225    95A     -0.581365    96A     -0.577520
      97A     -0.574059    98A     -0.571581    99A     -0.568806
     100A     -0.548253   101A     -0.544471   102A     -0.537928
     103A     -0.530278   104A     -0.527242   105A     -0.523495
     106A     -0.515728   107A     -0.513599   108A     -0.504737
     109A     -0.500662   110A     -0.499107   111A     -0.497931
     112A     -0.488688   113A     -0.480631   114A     -0.470829
     115A     -0.468283   116A     -0.440210   117A     -0.428477
     118A     -0.426236   119A     -0.423850   120A     -0.404560
     121A     -0.402575   122A     -0.386256   123A     -0.383570
     124A     -0.381366   125A     -0.364383   126A     -0.346503
     127A     -0.339588   128A     -0.331790   129A     -0.327239
     130A     -0.314188   131A     -0.296303

  @DF-RHF Final Energy: -1572.27225688510680

   => Energetics <=

    Nuclear Repulsion Energy =           3828.3122291469176162
    One-Electron Energy =               -9755.7206238320377452
    Two-Electron Energy =                4355.1361378000137847
    Total Energy =                      -1572.2722568851067990

  Dipole Moment: [D]
     X:     0.5660      Y:     2.6008      Z:     3.8333     Total:     4.6668

  Basis Set: (6-311++G** AUX)
    Blend: AUG-CC-PVTZ-RI
	 Reference Energy          =   -1572.2722568851067990 [Eh]
	 Singles Energy            =      -0.0000000000000000 [Eh]
	 Same-Spin Energy          =      -1.4748287022734325 [Eh]
	 Opposite-Spin Energy      =      -4.0562593271290472 [Eh]
	 Correlation Energy        =      -5.5310880294024800 [Eh]
	 Total Energy              =   -1577.8033449145093527 [Eh]

	 ================> DF-SCS-MP2 Energies <==================
	-----------------------------------------------------------
	 SCS Same-Spin Scale       =       0.3333333333333333 [-]
	 SCS Opposite-Spin Scale   =       1.2000000000000000 [-]
	 SCS Same-Spin Energy      =      -0.4916095674244775 [Eh]
	 SCS Opposite-Spin Energy  =      -4.8675111925548569 [Eh]
	 SCS Correlation Energy    =      -5.3591207599793345 [Eh]
	 SCS Total Energy          =   -1577.6313776450861042 [Eh]
	-----------------------------------------------------------

*** Psi4 exiting successfully. Buy a developer a beer!
