                               Psi4 1.3.2 release

  ==> Input File <==

--------------------------------------------------------------------------
molecule {
0 1
 C    3.160619   -4.969148   -0.612642
 C    4.186003   -4.052435   -0.347864
 C    3.908412   -2.670780   -0.316237
 C    2.561124   -2.308350   -0.562133
 N    1.569628   -3.170453   -0.824763
 C    1.872579   -4.476460   -0.845083
 C    4.955368   -1.616445   -0.050651
 C    6.317505   -1.887001    0.169540
 C    7.139560   -0.774270    0.373865
 N    6.708588    0.483940    0.372534
 C    5.386128    0.653306    0.164777
 N    4.521698   -0.340432   -0.047801
 N    4.976100    1.975222    0.166697
 C    3.706999    2.641335    0.029169
 C    3.682200    4.066997   -0.070980
 C    2.427410    4.684957   -0.193197
 C    1.213147    3.990765   -0.225331
 C    1.249360    2.594973   -0.135970
 C    2.488978    1.950357   -0.000153
 N    0.089772    1.760089   -0.144098
 C   -0.228127    0.632748    0.579418
 C   -1.505524   -0.105372    0.227012
 C   -2.104262   -0.085922   -1.043692
 C   -3.302585   -0.767126   -1.272130
 C   -3.933581   -1.508577   -0.255327
 C   -3.290015   -1.570083    0.995555
 C   -2.088355   -0.898446    1.230252
 C   -5.273954   -2.207521   -0.491388
 N   -6.523635   -1.459148   -0.271826
 C   -6.903741   -0.397054   -1.230932
 C   -6.444249    1.028192   -0.827669
 N   -6.854840    1.430806    0.539098
 C   -8.222843    1.938890    0.691679
 C   -6.429238    0.379267    1.495157
 C   -6.881913   -1.052645    1.106702
 O    0.476297    0.228643    1.489705
 C    4.933852    4.929322   -0.050849
 H    3.353836   -6.037484   -0.639841
 H    5.186605   -4.437879   -0.168375
 H    2.266182   -1.265342   -0.552786
 H    1.040939   -5.146087   -1.058664
 H    6.753201   -2.878245    0.178409
 H    8.210924   -0.872956    0.546985
 H    5.781935    2.564661    0.309751
 H    2.375504    5.770443   -0.269691
 H    0.268482    4.514990   -0.305290
 H    2.510024    0.880017    0.123124
 H   -0.611128    2.130788   -0.770089
 H   -1.630492    0.466619   -1.850811
 H   -3.760397   -0.703958   -2.259188
 H   -3.742012   -2.135841    1.809677
 H   -1.602398   -0.956712    2.201150
 H   -5.297964   -2.570120   -1.528794
 H   -5.317995   -3.095605    0.154967
 H   -6.537779   -0.667833   -2.305859
 H   -8.386097   -0.382627   -1.290338
 H   -6.938755    1.933054   -1.716821
 H   -5.154782    1.109323   -0.877916
 H   -8.958001    1.154171    0.480737
 H   -8.393888    2.777313    0.006644
 H   -8.378765    2.304203    1.713339
 H   -6.867681    0.679466    2.674344
 H   -5.025019    0.424310    1.551196
 H   -8.360605   -1.087969    1.196275
 H   -6.487281   -1.838185    1.879278
 H    5.677064    4.623347   -0.800740
 H    5.423767    4.883280    0.925916
 H    4.722325    5.983826   -0.246046
}
memory 20GB
set_num_threads(6)
psi4_io.set_default_path("/scratch/bdw2292")
set freeze_core True
E, wfn = energy('mp2/6-311++G**',return_wfn=True)
oeprop(wfn,"WIBERG_LOWDIN_INDICES")
clean()
--------------------------------------------------------------------------

    Molecular point group: c1

    Geometry (in Angstrom), charge = 0, multiplicity = 1:

       Center              X                  Y                   Z               Mass
    ------------   -----------------  -----------------  -----------------  -----------------
         C            3.052826044529    -4.967298606806    -0.617424864950    12.000000000000
         C            4.078210044529    -4.050585606806    -0.352646864950    12.000000000000
         C            3.800619044529    -2.668930606806    -0.321019864950    12.000000000000
         C            2.453331044529    -2.306500606806    -0.566915864950    12.000000000000
         N            1.461835044529    -3.168603606806    -0.829545864950    14.003074004430
         C            1.764786044529    -4.474610606806    -0.849865864950    12.000000000000
         C            4.847575044529    -1.614595606806    -0.055433864950    12.000000000000
         C            6.209712044529    -1.885151606806     0.164757135050    12.000000000000
         C            7.031767044529    -0.772420606806     0.369082135050    12.000000000000
         N            6.600795044529     0.485789393194     0.367751135050    14.003074004430
         C            5.278335044529     0.655155393194     0.159994135050    12.000000000000
         N            4.413905044529    -0.338582606806    -0.052583864950    14.003074004430
         N            4.868307044529     1.977071393194     0.161914135050    14.003074004430
         C            3.599206044529     2.643184393194     0.024386135050    12.000000000000
         C            3.574407044529     4.068846393194    -0.075762864950    12.000000000000
         C            2.319617044529     4.686806393194    -0.197979864950    12.000000000000
         C            1.105354044529     3.992614393194    -0.230113864950    12.000000000000
         C            1.141567044529     2.596822393194    -0.140752864950    12.000000000000
         C            2.381185044529     1.952206393194    -0.004935864950    12.000000000000
         N           -0.018020955471     1.761938393194    -0.148880864950    14.003074004430
         C           -0.335919955471     0.634597393194     0.574635135050    12.000000000000
         C           -1.613316955471    -0.103522606806     0.222229135050    12.000000000000
         C           -2.212054955471    -0.084072606806    -1.048474864950    12.000000000000
         C           -3.410377955471    -0.765276606806    -1.276912864950    12.000000000000
         C           -4.041373955471    -1.506727606806    -0.260109864950    12.000000000000
         C           -3.397807955471    -1.568233606806     0.990772135050    12.000000000000
         C           -2.196147955471    -0.896596606806     1.225469135050    12.000000000000
         C           -5.381746955471    -2.205671606806    -0.496170864950    12.000000000000
         N           -6.631427955471    -1.457298606806    -0.276608864950    14.003074004430
         C           -7.011533955471    -0.395204606806    -1.235714864950    12.000000000000
         C           -6.552041955471     1.030041393194    -0.832451864950    12.000000000000
         N           -6.962632955471     1.432655393194     0.534315135050    14.003074004430
         C           -8.330635955471     1.940739393194     0.686896135050    12.000000000000
         C           -6.537030955471     0.381116393194     1.490374135050    12.000000000000
         C           -6.989705955471    -1.050795606806     1.101919135050    12.000000000000
         O            0.368504044529     0.230492393194     1.484922135050    15.994914619570
         C            4.826059044529     4.931171393194    -0.055631864950    12.000000000000
         H            3.246043044529    -6.035634606806    -0.644623864950     1.007825032230
         H            5.078812044529    -4.436029606806    -0.173157864950     1.007825032230
         H            2.158389044529    -1.263492606806    -0.557568864950     1.007825032230
         H            0.933146044529    -5.144237606806    -1.063446864950     1.007825032230
         H            6.645408044529    -2.876395606806     0.173626135050     1.007825032230
         H            8.103131044529    -0.871106606806     0.542202135050     1.007825032230
         H            5.674142044529     2.566510393194     0.304968135050     1.007825032230
         H            2.267711044529     5.772292393194    -0.274473864950     1.007825032230
         H            0.160689044529     4.516839393194    -0.310072864950     1.007825032230
         H            2.402231044529     0.881866393194     0.118341135050     1.007825032230
         H           -0.718920955471     2.132637393194    -0.774871864950     1.007825032230
         H           -1.738284955471     0.468468393194    -1.855593864950     1.007825032230
         H           -3.868189955471    -0.702108606806    -2.263970864950     1.007825032230
         H           -3.849804955471    -2.133991606806     1.804894135050     1.007825032230
         H           -1.710190955471    -0.954862606806     2.196367135050     1.007825032230
         H           -5.405756955471    -2.568270606806    -1.533576864950     1.007825032230
         H           -5.425787955471    -3.093755606806     0.150184135050     1.007825032230
         H           -6.645571955471    -0.665983606806    -2.310641864950     1.007825032230
         H           -8.493889955471    -0.380777606806    -1.295120864950     1.007825032230
         H           -7.046547955471     1.934903393194    -1.721603864950     1.007825032230
         H           -5.262574955471     1.111172393194    -0.882698864950     1.007825032230
         H           -9.065793955471     1.156020393194     0.475954135050     1.007825032230
         H           -8.501680955471     2.779162393194     0.001861135050     1.007825032230
         H           -8.486557955471     2.306052393194     1.708556135050     1.007825032230
         H           -6.975473955471     0.681315393194     2.669561135050     1.007825032230
         H           -5.132811955471     0.426159393194     1.546413135050     1.007825032230
         H           -8.468397955471    -1.086119606806     1.191492135050     1.007825032230
         H           -6.595073955471    -1.836335606806     1.874495135050     1.007825032230
         H            5.569271044529     4.625196393194    -0.805522864950     1.007825032230
         H            5.315974044529     4.885129393194     0.921133135050     1.007825032230
         H            4.614532044529     5.985675393194    -0.250828864950     1.007825032230

  Charge       = 0
  Multiplicity = 1
  Basis Set: 6-311++G**
    Blend: 6-311++G**
  Basis Set: (6-311++G** AUX)
    Blend: AUG-CC-PVTZ-JKFIT

    Orbital Energies [Eh]
    ---------------------

    Doubly Occupied:

       1A    -20.519313     2A    -15.597666     3A    -15.596868
       4A    -15.569018     5A    -15.567583     6A    -15.563443
       7A    -15.559080     8A    -15.554578     9A    -11.365485
      10A    -11.365421    11A    -11.323844    12A    -11.309374
      13A    -11.309043    14A    -11.307581    15A    -11.304992
      16A    -11.303375    17A    -11.297739    18A    -11.288616
      19A    -11.285036    20A    -11.282195    21A    -11.278448
      22A    -11.274688    23A    -11.264403    24A    -11.258775
      25A    -11.258228    26A    -11.257623    27A    -11.250114
      28A    -11.249368    29A    -11.248943    30A    -11.248570
      31A    -11.245455    32A    -11.245453    33A    -11.242208
      34A    -11.241655    35A    -11.235615    36A    -11.234010
      37A    -11.223524    38A     -1.386325    39A     -1.335481
      40A     -1.260505    41A     -1.247658    42A     -1.244926
      43A     -1.235425    44A     -1.199130    45A     -1.198738
      46A     -1.162632    47A     -1.138293    48A     -1.102148
      49A     -1.065470    50A     -1.058042    51A     -1.037927
      52A     -1.033418    53A     -1.025150    54A     -1.006010
      55A     -0.991945    56A     -0.976886    57A     -0.945232
      58A     -0.927358    59A     -0.913430    60A     -0.894255
      61A     -0.866630    62A     -0.858906    63A     -0.846443
      64A     -0.842100    65A     -0.831044    66A     -0.825892
      67A     -0.819615    68A     -0.804110    69A     -0.780702
      70A     -0.749451    71A     -0.735430    72A     -0.725096
      73A     -0.712154    74A     -0.699455    75A     -0.689355
      76A     -0.676494    77A     -0.671591    78A     -0.658503
      79A     -0.655739    80A     -0.649721    81A     -0.646407
      82A     -0.641979    83A     -0.633663    84A     -0.631121
      85A     -0.619939    86A     -0.616275    87A     -0.610103
      88A     -0.606071    89A     -0.600397    90A     -0.595854
      91A     -0.594480    92A     -0.588048    93A     -0.584411
      94A     -0.581359    95A     -0.580201    96A     -0.579075
      97A     -0.575107    98A     -0.573411    99A     -0.562411
     100A     -0.548677   101A     -0.545583   102A     -0.530256
     103A     -0.528850   104A     -0.527037   105A     -0.524187
     106A     -0.517810   107A     -0.512339   108A     -0.508969
     109A     -0.508116   110A     -0.504579   111A     -0.503168
     112A     -0.495326   113A     -0.480462   114A     -0.473983
     115A     -0.453154   116A     -0.440520   117A     -0.435130
     118A     -0.429179   119A     -0.424249   120A     -0.419509
     121A     -0.410609   122A     -0.401858   123A     -0.385956
     124A     -0.382141   125A     -0.365030   126A     -0.346677
     127A     -0.342291   128A     -0.333318   129A     -0.315034
     130A     -0.311837   131A     -0.290522

  @DF-RHF Final Energy: -1572.35823381524642

   => Energetics <=

    Nuclear Repulsion Energy =           3698.1671207933500227
    One-Electron Energy =               -9495.7930996656450588
    Two-Electron Energy =                4225.2677450570481597
    Total Energy =                      -1572.3582338152464217

  Dipole Moment: [D]
     X:     0.8916      Y:    -1.2521      Z:    -2.1482     Total:     2.6415

  Basis Set: (6-311++G** AUX)
    Blend: AUG-CC-PVTZ-RI
	 Reference Energy          =   -1572.3582338152464217 [Eh]
	 Singles Energy            =      -0.0000000000000000 [Eh]
	 Same-Spin Energy          =      -1.4703924438551215 [Eh]
	 Opposite-Spin Energy      =      -4.0475069828470431 [Eh]
	 Correlation Energy        =      -5.5178994267021650 [Eh]
	 Total Energy              =   -1577.8761332419485370 [Eh]

	 ================> DF-SCS-MP2 Energies <==================
	-----------------------------------------------------------
	 SCS Same-Spin Scale       =       0.3333333333333333 [-]
	 SCS Opposite-Spin Scale   =       1.2000000000000000 [-]
	 SCS Same-Spin Energy      =      -0.4901308146183738 [Eh]
	 SCS Opposite-Spin Energy  =      -4.8570083794164516 [Eh]
	 SCS Correlation Energy    =      -5.3471391940348258 [Eh]
	 SCS Total Energy          =   -1577.7053730092811747 [Eh]
	-----------------------------------------------------------

*** Psi4 exiting successfully. Buy a developer a beer!
