 Gaussian 09, Revision A.02,
 Gaussian 09:  EM64L-G09RevA.02 11-Jun-2009

 --------------------------------------------------
 #P opt=(,maxcycle=400) wB97XD/6-31G* MaxDisk=100GB
 --------------------------------------------------

 -----------------------------------------------------------------
 MOLECULE0 Rotatable Bond Optimization on g2-node38.bme.utexas.edu
 -----------------------------------------------------------------
 Symbolic Z-matrix:
 Charge =  0 Multiplicity = 1

 SCF Done:  E(RwB97XD) =  -1581.44415344     A.U. after   16 cycles
 SCF Done:  E(RwB97XD) =  -1581.51513579     A.U. after   13 cycles
 SCF Done:  E(RwB97XD) =  -1581.62709796     A.U. after   14 cycles
 SCF Done:  E(RwB97XD) =  -1581.67557001     A.U. after   14 cycles
 SCF Done:  E(RwB97XD) =  -1581.72024723     A.U. after   17 cycles
 SCF Done:  E(RwB97XD) =  -1581.70775133     A.U. after   14 cycles
 SCF Done:  E(RwB97XD) =  -1581.73081387     A.U. after   14 cycles
 SCF Done:  E(RwB97XD) =  -1581.74880743     A.U. after   14 cycles
 SCF Done:  E(RwB97XD) =  -1581.75525395     A.U. after   14 cycles
 SCF Done:  E(RwB97XD) =  -1581.75777107     A.U. after   17 cycles
 SCF Done:  E(RwB97XD) =  -1581.76307154     A.U. after   12 cycles
 SCF Done:  E(RwB97XD) =  -1581.76311677     A.U. after   13 cycles
 SCF Done:  E(RwB97XD) =  -1581.76317809     A.U. after   11 cycles
 SCF Done:  E(RwB97XD) =  -1581.76320646     A.U. after   12 cycles
 SCF Done:  E(RwB97XD) =  -1581.76321404     A.U. after   12 cycles
 SCF Done:  E(RwB97XD) =  -1581.76321525     A.U. after    9 cycles
 SCF Done:  E(RwB97XD) =  -1581.76321587     A.U. after    8 cycles
 SCF Done:  E(RwB97XD) =  -1581.76321586     A.U. after    7 cycles
 SCF Done:  E(RwB97XD) =  -1581.76321593     A.U. after    7 cycles
 SCF Done:  E(RwB97XD) =  -1581.76321616     A.U. after    7 cycles
 Optimization completed.
    -- Stationary point found.

                         Standard orientation:
 ---------------------------------------------------------------------
 Center     Atomic      Atomic             Coordinates (Angstroms)
 Number     Number       Type             X           Y           Z
 ---------------------------------------------------------------------
      1          6           0       -0.473249    4.275124   -0.771228
      2          6           0        0.871331    4.192376   -0.430149
      3          6           0        1.547675    2.990366   -0.631486
      4          6           0        0.821150    1.926378   -1.182525
      5          7           0       -0.467862    1.990195   -1.511429
      6          6           0       -1.096707    3.150239   -1.300187
      7          6           0        2.969564    2.789191   -0.253860
      8          6           0        3.900652    3.819111   -0.154652
      9          6           0        5.186578    3.446464    0.235180
     10          7           0        5.545847    2.197123    0.496606
     11          6           0        4.572348    1.274787    0.354552
     12          7           0        3.312353    1.523532   -0.002105
     13          7           0        4.960954   -0.011243    0.613192
     14          6           0        4.245095   -1.217255    0.494614
     15          6           0        4.968720   -2.427038    0.479896
     16          6           0        4.248005   -3.609808    0.338573
     17          6           0        2.862266   -3.650937    0.195533
     18          6           0        2.171135   -2.443301    0.217070
     19          6           0        2.859556   -1.243396    0.393559
     20          7           0        0.784641   -2.305199    0.039130
     21          6           0       -0.155509   -3.232335   -0.331020
     22          6           0       -1.474917   -2.600805   -0.675337
     23          6           0       -1.550039   -1.357853   -1.310913
     24          6           0       -2.782380   -0.778543   -1.574630
     25          6           0       -3.965763   -1.409730   -1.191571
     26          6           0       -3.884071   -2.677206   -0.608118
     27          6           0       -2.653961   -3.274134   -0.357879
     28          6           0       -5.302810   -0.703939   -1.348504
     29          7           0       -5.692781    0.226094   -0.299593
     30          6           0       -5.026008    1.522855   -0.247559
     31          6           0       -3.815938    1.577918    0.702776
     32          7           0       -4.113000    1.068929    2.038864
     33          6           0       -4.901867    1.977843    2.851378
     34          6           0       -4.678967   -0.274537    1.939836
     35          6           0       -5.914213   -0.340284    1.026304
     36          8           0        0.036354   -4.436208   -0.364644
     37          6           0        6.471480   -2.443000    0.599833
     38          1           0       -1.032627    5.191776   -0.618290
     39          1           0        1.376530    5.045402    0.013697
     40          1           0        1.325251    0.981062   -1.366701
     41          1           0       -2.151690    3.177138   -1.564436
     42          1           0        3.661745    4.850913   -0.380582
     43          1           0        5.968218    4.196549    0.337919
     44          1           0        5.942228   -0.077500    0.838848
     45          1           0        4.796131   -4.548553    0.325548
     46          1           0        2.333248   -4.584963    0.064792
     47          1           0        2.314592   -0.311969    0.418711
     48          1           0        0.446176   -1.358715    0.130225
     49          1           0       -0.653614   -0.832752   -1.627703
     50          1           0       -2.810266    0.190832   -2.065691
     51          1           0       -4.798796   -3.197111   -0.331858
     52          1           0       -2.590296   -4.256679    0.099068
     53          1           0       -5.308523   -0.148496   -2.294162
     54          1           0       -6.095165   -1.459756   -1.423092
     55          1           0       -4.724463    1.804363   -1.263619
     56          1           0       -5.767399    2.267951    0.078546
     57          1           0       -3.458660    2.611878    0.792343
     58          1           0       -2.991155    0.982734    0.295418
     59          1           0       -5.911960    2.205426    2.467411
     60          1           0       -4.364234    2.927246    2.951730
     61          1           0       -5.017521    1.550720    3.853498
     62          1           0       -4.937269   -0.623287    2.947117
     63          1           0       -3.897074   -0.937866    1.552114
     64          1           0       -6.742906    0.207944    1.498505
     65          1           0       -6.247791   -1.378151    0.915338
     66          1           0        6.816840   -2.031341    1.558089
     67          1           0        6.952001   -1.866781   -0.201537
     68          1           0        6.851618   -3.465690    0.536340
 ---------------------------------------------------------------------

 The electronic state is 1-A.
 Alpha  occ. eigenvalues --  -19.23411 -14.49282 -14.48321 -14.46751 -14.46096
 Alpha  occ. eigenvalues --  -14.45764 -14.43616 -14.43135 -10.41778 -10.40081
 Alpha  occ. eigenvalues --  -10.37615 -10.36338 -10.35325 -10.35085 -10.34623
 Alpha  occ. eigenvalues --  -10.34135 -10.34016 -10.33622 -10.32863 -10.32368
 Alpha  occ. eigenvalues --  -10.31861 -10.31492 -10.31178 -10.30936 -10.30709
 Alpha  occ. eigenvalues --  -10.30687 -10.30677 -10.30586 -10.30533 -10.30403
 Alpha  occ. eigenvalues --  -10.30376 -10.30220 -10.30020 -10.29975 -10.29575
 Alpha  occ. eigenvalues --  -10.28739 -10.28405  -1.13443  -1.12296  -1.06322
 Alpha  occ. eigenvalues --   -1.04565  -1.03829  -1.03634  -1.00716  -0.99558
 Alpha  occ. eigenvalues --   -0.96086  -0.94671  -0.93098  -0.89777  -0.88124
 Alpha  occ. eigenvalues --   -0.87389  -0.86228  -0.85399  -0.84542  -0.83783
 Alpha  occ. eigenvalues --   -0.81888  -0.79581  -0.78270  -0.77798  -0.76320
 Alpha  occ. eigenvalues --   -0.73881  -0.73301  -0.73025  -0.72621  -0.70870
 Alpha  occ. eigenvalues --   -0.70314  -0.69615  -0.68039  -0.66413  -0.65150
 Alpha  occ. eigenvalues --   -0.63656  -0.63409  -0.62228  -0.61762  -0.60211
 Alpha  occ. eigenvalues --   -0.58848  -0.58045  -0.57570  -0.56611  -0.56101
 Alpha  occ. eigenvalues --   -0.55817  -0.55236  -0.55134  -0.54965  -0.54255
 Alpha  occ. eigenvalues --   -0.53866  -0.53239  -0.53154  -0.52612  -0.52174
 Alpha  occ. eigenvalues --   -0.51912  -0.51510  -0.51370  -0.50999  -0.50575
 Alpha  occ. eigenvalues --   -0.50365  -0.50116  -0.49975  -0.49497  -0.48335
 Alpha  occ. eigenvalues --   -0.47217  -0.46906  -0.46619  -0.46319  -0.46211
 Alpha  occ. eigenvalues --   -0.45762  -0.45236  -0.44797  -0.44044  -0.43932
 Alpha  occ. eigenvalues --   -0.43328  -0.43016  -0.42141  -0.41766  -0.41439
 Alpha  occ. eigenvalues --   -0.40964  -0.40776  -0.39912  -0.38187  -0.37592
 Alpha  occ. eigenvalues --   -0.35821  -0.35293  -0.34002  -0.33446  -0.33373
 Alpha  occ. eigenvalues --   -0.32818  -0.31904  -0.30772  -0.29115  -0.27079
 Alpha  occ. eigenvalues --   -0.24996
 Alpha virt. eigenvalues --   -0.00291   0.02872   0.03586   0.04480   0.06433
 Alpha virt. eigenvalues --    0.07258   0.08204   0.10371   0.13887   0.14815
 Alpha virt. eigenvalues --    0.15728   0.16386   0.17252   0.17441   0.18251

 Mulliken atomic charges:
              1
     1  C   -0.197836
     2  C   -0.154398
     3  C    0.035517
     4  C    0.009579
     5  N   -0.437522
     6  C    0.035730
     7  C    0.295139
     8  C   -0.254763
     9  C    0.049010
    10  N   -0.493032
    11  C    0.714357
    12  N   -0.568390
    13  N   -0.802042
    14  C    0.291470
    15  C    0.119857
    16  C   -0.240378
    17  C   -0.191301
    18  C    0.358155
    19  C   -0.269689
    20  N   -0.757985
    21  C    0.585753
    22  C    0.015196
    23  C   -0.205347
    24  C   -0.217915
    25  C    0.155962
    26  C   -0.223079
    27  C   -0.178380
    28  C   -0.263551
    29  N   -0.382218
    30  C   -0.183896
    31  C   -0.181774
    32  N   -0.385713
    33  C   -0.349276
    34  C   -0.182642
    35  C   -0.186517
    36  O   -0.513286
    37  C   -0.607387
    38  H    0.186141
    39  H    0.186727
    40  H    0.198116
    41  H    0.179047
    42  H    0.180748
    43  H    0.189491
    44  H    0.369212
    45  H    0.160817
    46  H    0.213085
    47  H    0.199371
    48  H    0.361557
    49  H    0.185458
    50  H    0.172056
    51  H    0.163617
    52  H    0.195610
    53  H    0.170276
    54  H    0.168921
    55  H    0.148159
    56  H    0.158345
    57  H    0.141648
    58  H    0.174886
    59  H    0.135272
    60  H    0.164121
    61  H    0.167873
    62  H    0.153487
    63  H    0.172929
    64  H    0.159427
    65  H    0.154992
    66  H    0.178046
    67  H    0.182741
    68  H    0.190423
 Sum of Mulliken atomic charges =   0.00000

 Dipole moment (field-independent basis, Debye):
    X=              0.5805    Y=              6.5718    Z=              0.4331  Tot=              6.6116
 Quadrupole moment (field-independent basis, Debye-Ang):
   XX=           -193.2954   YY=           -202.5039   ZZ=           -220.4848
   XY=              3.1057   XZ=             -1.2824   YZ=             -5.2216

 Normal termination of Gaussian 09 at Tue Mar 10 17:04:36 2020.
