                               Psi4 1.3.2 release

  ==> Input File <==

--------------------------------------------------------------------------
molecule {
0 1
 C    2.091969    6.202973    1.802489
 C    2.665332    5.426313    0.787906
 C    3.098275    4.113867    1.063960
 C    2.915372    3.668708    2.396549
 N    2.370834    4.399569    3.378892
 C    1.968870    5.643244    3.078290
 C    3.712856    3.203082    0.031379
 C    3.917444    3.544162   -1.318488
 C    4.485959    2.553237   -2.127929
 N    4.831657    1.344400   -1.694439
 C    4.603205    1.115040   -0.388703
 N    4.067357    1.979425    0.469855
 N    4.964915   -0.124390    0.046191
 C    4.207607   -1.330272    0.174517
 C    4.841174   -2.509330    0.670172
 C    4.052621   -3.665496    0.774272
 C    2.698488   -3.717202    0.427855
 C    2.086388   -2.554685   -0.055597
 C    2.850962   -1.380653   -0.177133
 N    0.708662   -2.450553   -0.440310
 C   -0.305053   -3.383272   -0.447451
 C   -1.686509   -2.931084   -0.883001
 C   -1.926816   -1.883683   -1.787795
 C   -3.234285   -1.493157   -2.087888
 C   -4.346469   -2.144470   -1.521820
 C   -4.091548   -3.207170   -0.633815
 C   -2.788042   -3.601977   -0.325126
 C   -5.776037   -1.687325   -1.819535
 N   -6.372778   -0.599078   -1.026882
 C   -5.909115    0.790847   -1.239935
 C   -4.778865    1.248122   -0.281464
 N   -5.087820    1.047086    1.154841
 C   -5.908621    2.075839    1.804082
 C   -5.506394   -0.360686    1.362532
 C   -6.638248   -0.830466    0.411989
 O   -0.136304   -4.537368   -0.085708
 C    6.303800   -2.563775    1.078330
 H    1.749351    7.215658    1.611874
 H    2.761873    5.862905   -0.203125
 H    3.223981    2.666278    2.680745
 H    1.530614    6.205339    3.901505
 H    3.661956    4.501760   -1.754585
 H    4.681933    2.717874   -3.186971
 H    5.947826   -0.142877    0.272584
 H    4.503412   -4.584496    1.147025
 H    2.127888   -4.631395    0.531095
 H    2.391396   -0.474739   -0.549094
 H    0.412965   -1.505285   -0.637672
 H   -1.086654   -1.377630   -2.256201
 H   -3.387077   -0.661523   -2.775520
 H   -4.922580   -3.728128   -0.159250
 H   -2.607632   -4.423080    0.364495
 H   -5.825037   -1.376158   -2.872855
 H   -6.442438   -2.554850   -1.710524
 H   -5.605037    0.956027   -2.365420
 H   -7.080682    1.674385   -0.993596
 H   -4.515270    2.572466   -0.490448
 H   -3.721054    0.617526   -0.526049
 H   -6.919641    2.095224    1.381733
 H   -5.451331    3.063266    1.673220
 H   -5.979176    1.880216    2.880389
 H   -5.858358   -0.514651    2.577439
 H   -4.356833   -1.165336    1.154461
 H   -7.854504   -0.059484    0.755742
 H   -6.902593   -1.974838    0.605551
 H    6.556064   -1.829788    1.856902
 H    6.955767   -2.366560    0.222797
 H    6.594683   -3.540335    1.474004
}
memory 20GB
set_num_threads(6)
psi4_io.set_default_path("/scratch/bdw2292")
set freeze_core True
E, wfn = energy('mp2/6-311++G**',return_wfn=True)
oeprop(wfn,"WIBERG_LOWDIN_INDICES")
clean()
--------------------------------------------------------------------------

    Molecular point group: c1

    Geometry (in Angstrom), charge = 0, multiplicity = 1:

       Center              X                  Y                   Z               Mass
    ------------   -----------------  -----------------  -----------------  -----------------
         C            1.925413946491     6.172483125023     1.723546672110    12.000000000000
         C            2.498776946491     5.395823125023     0.708963672110    12.000000000000
         C            2.931719946491     4.083377125023     0.985017672110    12.000000000000
         C            2.748816946491     3.638218125023     2.317606672110    12.000000000000
         N            2.204278946491     4.369079125023     3.299949672110    14.003074004430
         C            1.802314946491     5.612754125023     2.999347672110    12.000000000000
         C            3.546300946491     3.172592125023    -0.047563327890    12.000000000000
         C            3.750888946491     3.513672125023    -1.397430327890    12.000000000000
         C            4.319403946491     2.522747125023    -2.206871327890    12.000000000000
         N            4.665101946491     1.313910125023    -1.773381327890    14.003074004430
         C            4.436649946491     1.084550125023    -0.467645327890    12.000000000000
         N            3.900801946491     1.948935125023     0.390912672110    14.003074004430
         N            4.798359946491    -0.154879874977    -0.032751327890    14.003074004430
         C            4.041051946491    -1.360761874977     0.095574672110    12.000000000000
         C            4.674618946491    -2.539819874977     0.591229672110    12.000000000000
         C            3.886065946491    -3.695985874977     0.695329672110    12.000000000000
         C            2.531932946491    -3.747691874977     0.348912672110    12.000000000000
         C            1.919832946491    -2.585174874977    -0.134539327890    12.000000000000
         C            2.684406946491    -1.411142874977    -0.256075327890    12.000000000000
         N            0.542106946491    -2.481042874977    -0.519252327890    14.003074004430
         C           -0.471608053509    -3.413761874977    -0.526393327890    12.000000000000
         C           -1.853064053509    -2.961573874977    -0.961943327890    12.000000000000
         C           -2.093371053509    -1.914172874977    -1.866737327890    12.000000000000
         C           -3.400840053509    -1.523646874977    -2.166830327890    12.000000000000
         C           -4.513024053509    -2.174959874977    -1.600762327890    12.000000000000
         C           -4.258103053509    -3.237659874977    -0.712757327890    12.000000000000
         C           -2.954597053509    -3.632466874977    -0.404068327890    12.000000000000
         C           -5.942592053509    -1.717814874977    -1.898477327890    12.000000000000
         N           -6.539333053509    -0.629567874977    -1.105824327890    14.003074004430
         C           -6.075670053509     0.760357125023    -1.318877327890    12.000000000000
         C           -4.945420053509     1.217632125023    -0.360406327890    12.000000000000
         N           -5.254375053509     1.016596125023     1.075898672110    14.003074004430
         C           -6.075176053509     2.045349125023     1.725139672110    12.000000000000
         C           -5.672949053509    -0.391175874977     1.283589672110    12.000000000000
         C           -6.804803053509    -0.860955874977     0.333046672110    12.000000000000
         O           -0.302859053509    -4.567857874977    -0.164650327890    15.994914619570
         C            6.137244946491    -2.594264874977     0.999387672110    12.000000000000
         H            1.582795946491     7.185168125023     1.532931672110     1.007825032230
         H            2.595317946491     5.832415125023    -0.282067327890     1.007825032230
         H            3.057425946491     2.635788125023     2.601802672110     1.007825032230
         H            1.364058946491     6.174849125023     3.822562672110     1.007825032230
         H            3.495400946491     4.471270125023    -1.833527327890     1.007825032230
         H            4.515377946491     2.687384125023    -3.265913327890     1.007825032230
         H            5.781270946491    -0.173366874977     0.193641672110     1.007825032230
         H            4.336856946491    -4.614985874977     1.068082672110     1.007825032230
         H            1.961332946491    -4.661884874977     0.452152672110     1.007825032230
         H            2.224840946491    -0.505228874977    -0.628036327890     1.007825032230
         H            0.246409946491    -1.535774874977    -0.716614327890     1.007825032230
         H           -1.253209053509    -1.408119874977    -2.335143327890     1.007825032230
         H           -3.553632053509    -0.692012874977    -2.854462327890     1.007825032230
         H           -5.089135053509    -3.758617874977    -0.238192327890     1.007825032230
         H           -2.774187053509    -4.453569874977     0.285552672110     1.007825032230
         H           -5.991592053509    -1.406647874977    -2.951797327890     1.007825032230
         H           -6.608993053509    -2.585339874977    -1.789466327890     1.007825032230
         H           -5.771592053509     0.925537125023    -2.444362327890     1.007825032230
         H           -7.247237053509     1.643895125023    -1.072538327890     1.007825032230
         H           -4.681825053509     2.541976125023    -0.569390327890     1.007825032230
         H           -3.887609053509     0.587036125023    -0.604991327890     1.007825032230
         H           -7.086196053509     2.064734125023     1.302790672110     1.007825032230
         H           -5.617886053509     3.032776125023     1.594277672110     1.007825032230
         H           -6.145731053509     1.849726125023     2.801446672110     1.007825032230
         H           -6.024913053509    -0.545140874977     2.498496672110     1.007825032230
         H           -4.523388053509    -1.195825874977     1.075518672110     1.007825032230
         H           -8.021059053509    -0.089973874977     0.676799672110     1.007825032230
         H           -7.069148053509    -2.005327874977     0.526608672110     1.007825032230
         H            6.389508946491    -1.860277874977     1.777959672110     1.007825032230
         H            6.789211946491    -2.397049874977     0.143854672110     1.007825032230
         H            6.428127946491    -3.570824874977     1.395061672110     1.007825032230

  Charge       = 0
  Multiplicity = 1
  Basis Set: 6-311++G**
    Blend: 6-311++G**
  Basis Set: (6-311++G** AUX)
    Blend: AUG-CC-PVTZ-JKFIT

    Orbital Energies [Eh]
    ---------------------

    Doubly Occupied:

       1A    -20.523301     2A    -15.604657     3A    -15.581367
       4A    -15.579137     5A    -15.577398     6A    -15.572777
       7A    -15.572159     8A    -15.556374     9A    -11.367891
      10A    -11.362799    11A    -11.333417    12A    -11.313437
      13A    -11.312941    14A    -11.311676    15A    -11.309286
      16A    -11.304981    17A    -11.300405    18A    -11.293955
      19A    -11.293610    20A    -11.291674    21A    -11.284585
      22A    -11.281629    23A    -11.274821    24A    -11.265479
      25A    -11.264129    26A    -11.262959    27A    -11.262698
      28A    -11.259600    29A    -11.254373    30A    -11.254087
      31A    -11.250655    32A    -11.247262    33A    -11.238267
      34A    -11.236045    35A    -11.231276    36A    -11.229129
      37A    -11.216545    38A     -1.389290    39A     -1.347908
      40A     -1.269981    41A     -1.250696    42A     -1.247582
      43A     -1.239363    44A     -1.213283    45A     -1.201620
      46A     -1.167592    47A     -1.137195    48A     -1.111311
      49A     -1.073716    50A     -1.062674    51A     -1.044477
      52A     -1.036100    53A     -1.030279    54A     -1.003540
      55A     -0.994348    56A     -0.979564    57A     -0.944945
      58A     -0.929261    59A     -0.923743    60A     -0.901357
      61A     -0.867895    62A     -0.866318    63A     -0.853751
      64A     -0.847772    65A     -0.835294    66A     -0.828640
      67A     -0.822632    68A     -0.808099    69A     -0.778286
      70A     -0.752081    71A     -0.739207    72A     -0.731388
      73A     -0.717807    74A     -0.716160    75A     -0.702741
      76A     -0.682153    77A     -0.676044    78A     -0.666839
      79A     -0.662250    80A     -0.656295    81A     -0.650060
      82A     -0.644459    83A     -0.636957    84A     -0.636160
      85A     -0.623154    86A     -0.615538    87A     -0.609342
      88A     -0.607932    89A     -0.606526    90A     -0.601446
      91A     -0.598289    92A     -0.592569    93A     -0.587451
      94A     -0.586904    95A     -0.582432    96A     -0.580786
      97A     -0.578244    98A     -0.576683    99A     -0.567008
     100A     -0.548140   101A     -0.543861   102A     -0.539837
     103A     -0.533032   104A     -0.530535   105A     -0.527456
     106A     -0.521050   107A     -0.511516   108A     -0.507252
     109A     -0.505955   110A     -0.504818   111A     -0.503497
     112A     -0.499975   113A     -0.489937   114A     -0.465255
     115A     -0.455846   116A     -0.449797   117A     -0.437889
     118A     -0.436181   119A     -0.429670   120A     -0.416160
     121A     -0.413338   122A     -0.412756   123A     -0.403457
     124A     -0.384602   125A     -0.381808   126A     -0.352018
     127A     -0.347727   128A     -0.340639   129A     -0.317327
     130A     -0.314719   131A     -0.285841

  @DF-RHF Final Energy: -1572.34347327727551

   => Energetics <=

    Nuclear Repulsion Energy =           3615.6278110645503148
    One-Electron Energy =               -9329.5784042373488774
    Two-Electron Energy =                4141.6071198955223736
    Total Energy =                      -1572.3434732772757343

  Dipole Moment: [D]
     X:    -0.1560      Y:     6.5045      Z:    -2.9213     Total:     7.1322

  Basis Set: (6-311++G** AUX)
    Blend: AUG-CC-PVTZ-RI
	 Reference Energy          =   -1572.3434732772755069 [Eh]
	 Singles Energy            =      -0.0000000000000000 [Eh]
	 Same-Spin Energy          =      -1.4686329710009725 [Eh]
	 Opposite-Spin Energy      =      -4.0440635377286061 [Eh]
	 Correlation Energy        =      -5.5126965087295785 [Eh]
	 Total Energy              =   -1577.8561697860050117 [Eh]

	 ================> DF-SCS-MP2 Energies <==================
	-----------------------------------------------------------
	 SCS Same-Spin Scale       =       0.3333333333333333 [-]
	 SCS Opposite-Spin Scale   =       1.2000000000000000 [-]
	 SCS Same-Spin Energy      =      -0.4895443236669908 [Eh]
	 SCS Opposite-Spin Energy  =      -4.8528762452743273 [Eh]
	 SCS Correlation Energy    =      -5.3424205689413178 [Eh]
	 SCS Total Energy          =   -1577.6858938462169135 [Eh]
	-----------------------------------------------------------

*** Psi4 exiting successfully. Buy a developer a beer!
