                               Psi4 1.3.2 release

  ==> Input File <==

--------------------------------------------------------------------------
molecule {
0 1
 C    0.044682    4.593799   -1.580505
 C    1.365127    4.478787   -1.124901
 C    1.935553    3.204482   -0.938818
 C    1.107516    2.103446   -1.269616
 N   -0.153813    2.192636   -1.711516
 C   -0.671012    3.422779   -1.854987
 C    3.340504    2.977813   -0.439098
 C    4.314993    3.974590   -0.267937
 C    5.570388    3.532330    0.167378
 N    5.869702    2.261960    0.431317
 C    4.868238    1.375242    0.261936
 N    3.643182    1.698101   -0.155898
 N    5.180194    0.058270    0.554720
 C    4.445079   -1.177560    0.443720
 C    5.142201   -2.422976    0.486120
 C    4.379591   -3.594067    0.335933
 C    2.991500   -3.607132    0.153332
 C    2.314352   -2.383635    0.152879
 C    3.052534   -1.198951    0.297069
 N    0.905101   -2.204530   -0.014261
 C   -0.098886   -3.081917   -0.353179
 C   -1.440261   -2.465094   -0.704147
 C   -1.570733   -1.242747   -1.385669
 C   -2.832552   -0.686437   -1.604270
 C   -4.006737   -1.335562   -1.177382
 C   -3.862931   -2.591318   -0.555513
 C   -2.604771   -3.156272   -0.332748
 C   -5.378867   -0.673931   -1.326886
 N   -5.833905    0.296357   -0.312303
 C   -4.895361    1.336981    0.167897
 C   -4.097911    0.938838    1.438063
 N   -4.941925    0.470984    2.564799
 C   -5.537736    1.512222    3.409895
 C   -5.858487   -0.587313    2.073507
 C   -6.666801   -0.183434    0.813888
 O    0.053979   -4.293325   -0.359659
 C    6.648581   -2.527405    0.655391
 H   -0.419296    5.565951   -1.719231
 H    1.919591    5.387155   -0.901602
 H    1.489819    1.089741   -1.200760
 H   -1.698674    3.459235   -2.213826
 H    4.160903    5.025775   -0.477757
 H    6.402006    4.220706    0.315286
 H    6.152094   -0.004660    0.817755
 H    4.884380   -4.559127    0.349595
 H    2.441295   -4.530903    0.025107
 H    2.529836   -0.257474    0.308617
 H    0.603021   -1.243555    0.063675
 H   -0.683352   -0.707424   -1.715471
 H   -2.890850    0.286124   -2.092353
 H   -4.745952   -3.131135   -0.214556
 H   -2.505891   -4.120850    0.159177
 H   -5.416666   -0.151829   -2.293504
 H   -6.127170   -1.476985   -1.362104
 H   -4.241134    1.649112   -0.625951
 H   -5.716546    2.534144    0.520840
 H   -3.362599    1.969020    1.850368
 H   -3.219192   -0.096506    1.133357
 H   -6.260784    2.110367    2.843938
 H   -4.757461    2.175836    3.799720
 H   -6.048069    1.057525    4.266651
 H   -6.623889   -0.920816    2.990339
 H   -5.066498   -1.701387    1.767949
 H   -7.566682    0.887087    1.177576
 H   -7.461342   -1.247116    0.402836
 H    7.001032   -2.083003    1.597128
 H    7.171547   -2.016518   -0.158060
 H    7.002422   -3.561698    0.653569
}
memory 20GB
set_num_threads(6)
psi4_io.set_default_path("/scratch/bdw2292")
set freeze_core True
E, wfn = energy('mp2/6-311++G**',return_wfn=True)
oeprop(wfn,"WIBERG_LOWDIN_INDICES")
clean()
--------------------------------------------------------------------------

    Molecular point group: c1

    Geometry (in Angstrom), charge = 0, multiplicity = 1:

       Center              X                  Y                   Z               Mass
    ------------   -----------------  -----------------  -----------------  -----------------
         C           -0.070669183036     4.573011622671    -1.529194806509    12.000000000000
         C            1.249775816964     4.457999622671    -1.073590806509    12.000000000000
         C            1.820201816964     3.183694622671    -0.887507806509    12.000000000000
         C            0.992164816964     2.082658622671    -1.218305806509    12.000000000000
         N           -0.269164183036     2.171848622671    -1.660205806509    14.003074004430
         C           -0.786363183036     3.401991622671    -1.803676806509    12.000000000000
         C            3.225152816964     2.957025622671    -0.387787806509    12.000000000000
         C            4.199641816964     3.953802622671    -0.216626806509    12.000000000000
         C            5.455036816964     3.511542622671     0.218688193491    12.000000000000
         N            5.754350816964     2.241172622671     0.482627193491    14.003074004430
         C            4.752886816964     1.354454622671     0.313246193491    12.000000000000
         N            3.527830816964     1.677313622671    -0.104587806509    14.003074004430
         N            5.064842816964     0.037482622671     0.606030193491    14.003074004430
         C            4.329727816964    -1.198347377329     0.495030193491    12.000000000000
         C            5.026849816964    -2.443763377329     0.537430193491    12.000000000000
         C            4.264239816964    -3.614854377329     0.387243193491    12.000000000000
         C            2.876148816964    -3.627919377329     0.204642193491    12.000000000000
         C            2.199000816964    -2.404422377329     0.204189193491    12.000000000000
         C            2.937182816964    -1.219738377329     0.348379193491    12.000000000000
         N            0.789749816964    -2.225317377329     0.037049193491    14.003074004430
         C           -0.214237183036    -3.102704377329    -0.301868806509    12.000000000000
         C           -1.555612183036    -2.485881377329    -0.652836806509    12.000000000000
         C           -1.686084183036    -1.263534377329    -1.334358806509    12.000000000000
         C           -2.947903183036    -0.707224377329    -1.552959806509    12.000000000000
         C           -4.122088183036    -1.356349377329    -1.126071806509    12.000000000000
         C           -3.978282183036    -2.612105377329    -0.504202806509    12.000000000000
         C           -2.720122183036    -3.177059377329    -0.281437806509    12.000000000000
         C           -5.494218183036    -0.694718377329    -1.275575806509    12.000000000000
         N           -5.949256183036     0.275569622671    -0.260992806509    14.003074004430
         C           -5.010712183036     1.316193622671     0.219207193491    12.000000000000
         C           -4.213262183036     0.918050622671     1.489373193491    12.000000000000
         N           -5.057276183036     0.450196622671     2.616109193491    14.003074004430
         C           -5.653087183036     1.491434622671     3.461205193491    12.000000000000
         C           -5.973838183036    -0.608100377329     2.124817193491    12.000000000000
         C           -6.782152183036    -0.204221377329     0.865198193491    12.000000000000
         O           -0.061372183036    -4.314112377329    -0.308348806509    15.994914619570
         C            6.533229816964    -2.548192377329     0.706701193491    12.000000000000
         H           -0.534647183036     5.545163622671    -1.667920806509     1.007825032230
         H            1.804239816964     5.366367622671    -0.850291806509     1.007825032230
         H            1.374467816964     1.068953622671    -1.149449806509     1.007825032230
         H           -1.814025183036     3.438447622671    -2.162515806509     1.007825032230
         H            4.045551816964     5.004987622671    -0.426446806509     1.007825032230
         H            6.286654816964     4.199918622671     0.366596193491     1.007825032230
         H            6.036742816964    -0.025447377329     0.869065193491     1.007825032230
         H            4.769028816964    -4.579914377329     0.400905193491     1.007825032230
         H            2.325943816964    -4.551690377329     0.076417193491     1.007825032230
         H            2.414484816964    -0.278261377329     0.359927193491     1.007825032230
         H            0.487669816964    -1.264342377329     0.114985193491     1.007825032230
         H           -0.798703183036    -0.728211377329    -1.664160806509     1.007825032230
         H           -3.006201183036     0.265336622671    -2.041042806509     1.007825032230
         H           -4.861303183036    -3.151922377329    -0.163245806509     1.007825032230
         H           -2.621242183036    -4.141637377329     0.210487193491     1.007825032230
         H           -5.532017183036    -0.172616377329    -2.242193806509     1.007825032230
         H           -6.242521183036    -1.497772377329    -1.310793806509     1.007825032230
         H           -4.356485183036     1.628324622671    -0.574640806509     1.007825032230
         H           -5.831897183036     2.513356622671     0.572150193491     1.007825032230
         H           -3.477950183036     1.948232622671     1.901678193491     1.007825032230
         H           -3.334543183036    -0.117293377329     1.184667193491     1.007825032230
         H           -6.376135183036     2.089579622671     2.895248193491     1.007825032230
         H           -4.872812183036     2.155048622671     3.851030193491     1.007825032230
         H           -6.163420183036     1.036737622671     4.317961193491     1.007825032230
         H           -6.739240183036    -0.941603377329     3.041649193491     1.007825032230
         H           -5.181849183036    -1.722174377329     1.819259193491     1.007825032230
         H           -7.682033183036     0.866299622671     1.228886193491     1.007825032230
         H           -7.576693183036    -1.267903377329     0.454146193491     1.007825032230
         H            6.885680816964    -2.103790377329     1.648438193491     1.007825032230
         H            7.056195816964    -2.037305377329    -0.106749806509     1.007825032230
         H            6.887070816964    -3.582485377329     0.704879193491     1.007825032230

  Charge       = 0
  Multiplicity = 1
  Basis Set: 6-311++G**
    Blend: 6-311++G**
  Basis Set: (6-311++G** AUX)
    Blend: AUG-CC-PVTZ-JKFIT

    Orbital Energies [Eh]
    ---------------------

    Doubly Occupied:

       1A    -20.521802     2A    -15.604412     3A    -15.601210
       4A    -15.587945     5A    -15.574143     6A    -15.569021
       7A    -15.568089     8A    -15.556588     9A    -11.375069
      10A    -11.364125    11A    -11.335072    12A    -11.326006
      13A    -11.314424    14A    -11.309386    15A    -11.304841
      16A    -11.302456    17A    -11.302298    18A    -11.301724
      19A    -11.301385    20A    -11.292477    21A    -11.290393
      22A    -11.281384    23A    -11.275622    24A    -11.266916
      25A    -11.256670    26A    -11.256545    27A    -11.253200
      28A    -11.252674    29A    -11.249110    30A    -11.248086
      31A    -11.247185    32A    -11.244824    33A    -11.244669
      34A    -11.239961    35A    -11.233982    36A    -11.230474
      37A    -11.224957    38A     -1.386077    39A     -1.345667
      40A     -1.279347    41A     -1.251657    42A     -1.244867
      43A     -1.242141    44A     -1.210219    45A     -1.199304
      46A     -1.161115    47A     -1.139820    48A     -1.116816
      49A     -1.075974    50A     -1.059274    51A     -1.049014
      52A     -1.037460    53A     -1.022766    54A     -1.008065
      55A     -0.992616    56A     -0.975631    57A     -0.947102
      58A     -0.927714    59A     -0.927142    60A     -0.901444
      61A     -0.873573    62A     -0.866329    63A     -0.858809
      64A     -0.842946    65A     -0.834700    66A     -0.826697
      67A     -0.821871    68A     -0.803936    69A     -0.778101
      70A     -0.754949    71A     -0.738927    72A     -0.730999
      73A     -0.722456    74A     -0.701279    75A     -0.695135
      76A     -0.683226    77A     -0.672389    78A     -0.666948
      79A     -0.658423    80A     -0.655924    81A     -0.652178
      82A     -0.640769    83A     -0.636871    84A     -0.629617
      85A     -0.622801    86A     -0.618111    87A     -0.613575
      88A     -0.607326    89A     -0.605316    90A     -0.603400
      91A     -0.599553    92A     -0.596109    93A     -0.592248
      94A     -0.590482    95A     -0.586618    96A     -0.580618
      97A     -0.580163    98A     -0.570742    99A     -0.565453
     100A     -0.562358   101A     -0.547929   102A     -0.545522
     103A     -0.533382   104A     -0.524527   105A     -0.521338
     106A     -0.514633   107A     -0.511174   108A     -0.509914
     109A     -0.508376   110A     -0.505804   111A     -0.499558
     112A     -0.491418   113A     -0.484768   114A     -0.481040
     115A     -0.456363   116A     -0.452318   117A     -0.443844
     118A     -0.431615   119A     -0.427137   120A     -0.425002
     121A     -0.414743   122A     -0.407845   123A     -0.401102
     124A     -0.382244   125A     -0.374344   126A     -0.347125
     127A     -0.345428   128A     -0.340818   129A     -0.315625
     130A     -0.313323   131A     -0.290219

  @DF-RHF Final Energy: -1572.33459471531705

   => Energetics <=

    Nuclear Repulsion Energy =           3763.5739008051609744
    One-Electron Energy =               -9625.4154868205150706
    Two-Electron Energy =                4289.5069913000379529
    Total Energy =                      -1572.3345947153165980

  Dipole Moment: [D]
     X:     0.9217      Y:     7.0958      Z:    -0.2286     Total:     7.1591

  Basis Set: (6-311++G** AUX)
    Blend: AUG-CC-PVTZ-RI
	 Reference Energy          =   -1572.3345947153170528 [Eh]
	 Singles Energy            =      -0.0000000000000000 [Eh]
	 Same-Spin Energy          =      -1.4720297998928122 [Eh]
	 Opposite-Spin Energy      =      -4.0503771111586691 [Eh]
	 Correlation Energy        =      -5.5224069110514815 [Eh]
	 Total Energy              =   -1577.8570016263686284 [Eh]

	 ================> DF-SCS-MP2 Energies <==================
	-----------------------------------------------------------
	 SCS Same-Spin Scale       =       0.3333333333333333 [-]
	 SCS Opposite-Spin Scale   =       1.2000000000000000 [-]
	 SCS Same-Spin Energy      =      -0.4906765999642707 [Eh]
	 SCS Opposite-Spin Energy  =      -4.8604525333904025 [Eh]
	 SCS Correlation Energy    =      -5.3511291333546733 [Eh]
	 SCS Total Energy          =   -1577.6857238486716142 [Eh]
	-----------------------------------------------------------

*** Psi4 exiting successfully. Buy a developer a beer!
