                               Psi4 1.3.2 release

  ==> Input File <==

--------------------------------------------------------------------------
molecule {
0 1
 C    0.294423    4.596155   -1.001594
 C    1.622187    4.479502   -0.566751
 C    2.200831    3.204521   -0.407987
 C    1.366814    2.107079   -0.737174
 N    0.099207    2.195788   -1.158714
 C   -0.422011    3.426241   -1.280147
 C    3.616825    2.979642    0.063473
 C    4.566212    3.980382    0.323561
 C    5.828560    3.527975    0.725455
 N    6.156155    2.248105    0.883267
 C    5.174718    1.356069    0.633790
 N    3.942664    1.684687    0.236626
 N    5.509310    0.022547    0.817250
 C    4.809435   -1.210162    0.547324
 C    5.547270   -2.423187    0.399111
 C    4.814196   -3.588939    0.117941
 C    3.421600   -3.621956   -0.023656
 C    2.710695   -2.428977    0.143502
 C    3.414495   -1.248526    0.430939
 N    1.291899   -2.268837    0.027408
 C    0.308209   -3.137892   -0.382999
 C   -1.091181   -2.586527   -0.590106
 C   -1.357464   -1.254640   -0.952501
 C   -2.672139   -0.812159   -1.111227
 C   -3.768914   -1.674351   -0.920770
 C   -3.487325   -3.013750   -0.588453
 C   -2.174957   -3.466663   -0.430182
 C   -5.204138   -1.171921   -1.106831
 N   -5.576498    0.164112   -0.600424
 C   -5.159349    0.549005    0.768034
 C   -6.207288    0.166280    1.843624
 N   -7.581362    0.655922    1.583518
 C   -7.862893    2.036785    1.992255
 C   -7.971561    0.290359    0.201548
 C   -6.937847    0.665165   -0.890823
 O    0.528058   -4.326188   -0.562621
 C    7.060673   -2.499464    0.502482
 H   -0.174802    5.568196   -1.121496
 H    2.173356    5.389913   -0.343855
 H    1.758530    1.097201   -0.680989
 H   -1.454562    3.473172   -1.622726
 H    4.378215    5.040569    0.206291
 H    6.626318    4.241049    0.931959
 H    6.483394   -0.050583    1.070373
 H    5.345169   -4.530727   -0.015666
 H    2.896591   -4.540621   -0.255593
 H    2.875072   -0.324701    0.565759
 H    0.965498   -1.335696    0.234443
 H   -0.536497   -0.559925   -1.116671
 H   -2.837305    0.227181   -1.394469
 H   -4.301421   -3.725115   -0.451504
 H   -1.969040   -4.502858   -0.173381
 H   -5.431017   -1.130144   -2.182823
 H   -5.860462   -1.940414   -0.672867
 H   -4.234434    0.190352    0.981846
 H   -5.048822    2.087217    0.806608
 H   -5.768898    0.660559    3.107522
 H   -6.260733   -1.347720    1.898716
 H   -7.267081    2.748564    1.409297
 H   -7.633386    2.170939    3.055549
 H   -8.925161    2.264788    1.847883
 H   -9.163818    0.859817   -0.090013
 H   -8.131514   -1.225426    0.160776
 H   -6.873166    2.215812   -0.904978
 H   -7.254601    0.358854   -1.876726
 H    7.405967   -2.257154    1.517384
 H    7.547278   -1.797422   -0.189154
 H    7.456137   -3.496392    0.264104
}
memory 20GB
set_num_threads(6)
psi4_io.set_default_path("/scratch/bdw2292")
set freeze_core True
E, wfn = energy('mp2/6-311++G**',return_wfn=True)
oeprop(wfn,"WIBERG_LOWDIN_INDICES")
clean()
--------------------------------------------------------------------------

    Molecular point group: c1

    Geometry (in Angstrom), charge = 0, multiplicity = 1:

       Center              X                  Y                   Z               Mass
    ------------   -----------------  -----------------  -----------------  -----------------
         C            0.197182286920     4.609864968316    -0.988371675441    12.000000000000
         C            1.524946286920     4.493211968316    -0.553528675441    12.000000000000
         C            2.103590286920     3.218230968316    -0.394764675441    12.000000000000
         C            1.269573286920     2.120788968316    -0.723951675441    12.000000000000
         N            0.001966286920     2.209497968316    -1.145491675441    14.003074004430
         C           -0.519251713080     3.439950968316    -1.266924675441    12.000000000000
         C            3.519584286920     2.993351968316     0.076695324559    12.000000000000
         C            4.468971286920     3.994091968316     0.336783324559    12.000000000000
         C            5.731319286920     3.541684968316     0.738677324559    12.000000000000
         N            6.058914286920     2.261814968316     0.896489324559    14.003074004430
         C            5.077477286920     1.369778968316     0.647012324559    12.000000000000
         N            3.845423286920     1.698396968316     0.249848324559    14.003074004430
         N            5.412069286920     0.036256968316     0.830472324559    14.003074004430
         C            4.712194286920    -1.196452031684     0.560546324559    12.000000000000
         C            5.450029286920    -2.409477031684     0.412333324559    12.000000000000
         C            4.716955286920    -3.575229031684     0.131163324559    12.000000000000
         C            3.324359286920    -3.608246031684    -0.010433675441    12.000000000000
         C            2.613454286920    -2.415267031684     0.156724324559    12.000000000000
         C            3.317254286920    -1.234816031684     0.444161324559    12.000000000000
         N            1.194658286920    -2.255127031684     0.040630324559    14.003074004430
         C            0.210968286920    -3.124182031684    -0.369776675441    12.000000000000
         C           -1.188421713080    -2.572817031684    -0.576883675441    12.000000000000
         C           -1.454704713080    -1.240930031684    -0.939278675441    12.000000000000
         C           -2.769379713080    -0.798449031684    -1.098004675441    12.000000000000
         C           -3.866154713080    -1.660641031684    -0.907547675441    12.000000000000
         C           -3.584565713080    -3.000040031684    -0.575230675441    12.000000000000
         C           -2.272197713080    -3.452953031684    -0.416959675441    12.000000000000
         C           -5.301378713080    -1.158211031684    -1.093608675441    12.000000000000
         N           -5.673738713080     0.177821968316    -0.587201675441    14.003074004430
         C           -5.256589713080     0.562714968316     0.781256324559    12.000000000000
         C           -6.304528713080     0.179989968316     1.856846324559    12.000000000000
         N           -7.678602713080     0.669631968316     1.596740324559    14.003074004430
         C           -7.960133713080     2.050494968316     2.005477324559    12.000000000000
         C           -8.068801713080     0.304068968316     0.214770324559    12.000000000000
         C           -7.035087713080     0.678874968316    -0.877600675441    12.000000000000
         O            0.430817286920    -4.312478031684    -0.549398675441    15.994914619570
         C            6.963432286920    -2.485754031684     0.515704324559    12.000000000000
         H           -0.272042713080     5.581905968316    -1.108273675441     1.007825032230
         H            2.076115286920     5.403622968316    -0.330632675441     1.007825032230
         H            1.661289286920     1.110910968316    -0.667766675441     1.007825032230
         H           -1.551802713080     3.486881968316    -1.609503675441     1.007825032230
         H            4.280974286920     5.054278968316     0.219513324559     1.007825032230
         H            6.529077286920     4.254758968316     0.945181324559     1.007825032230
         H            6.386153286920    -0.036873031684     1.083595324559     1.007825032230
         H            5.247928286920    -4.517017031684    -0.002443675441     1.007825032230
         H            2.799350286920    -4.526911031684    -0.242370675441     1.007825032230
         H            2.777831286920    -0.310991031684     0.578981324559     1.007825032230
         H            0.868257286920    -1.321986031684     0.247665324559     1.007825032230
         H           -0.633737713080    -0.546215031684    -1.103448675441     1.007825032230
         H           -2.934545713080     0.240890968316    -1.381246675441     1.007825032230
         H           -4.398661713080    -3.711405031684    -0.438281675441     1.007825032230
         H           -2.066280713080    -4.489148031684    -0.160158675441     1.007825032230
         H           -5.528257713080    -1.116434031684    -2.169600675441     1.007825032230
         H           -5.957702713080    -1.926704031684    -0.659644675441     1.007825032230
         H           -4.331674713080     0.204061968316     0.995068324559     1.007825032230
         H           -5.146062713080     2.100926968316     0.819830324559     1.007825032230
         H           -5.866138713080     0.674268968316     3.120744324559     1.007825032230
         H           -6.357973713080    -1.334010031684     1.911938324559     1.007825032230
         H           -7.364321713080     2.762273968316     1.422519324559     1.007825032230
         H           -7.730626713080     2.184648968316     3.068771324559     1.007825032230
         H           -9.022401713080     2.278497968316     1.861105324559     1.007825032230
         H           -9.261058713080     0.873526968316    -0.076790675441     1.007825032230
         H           -8.228754713080    -1.211716031684     0.173998324559     1.007825032230
         H           -6.970406713080     2.229521968316    -0.891755675441     1.007825032230
         H           -7.351841713080     0.372563968316    -1.863503675441     1.007825032230
         H            7.308726286920    -2.243444031684     1.530606324559     1.007825032230
         H            7.450037286920    -1.783712031684    -0.175931675441     1.007825032230
         H            7.358896286920    -3.482682031684     0.277326324559     1.007825032230

  Charge       = 0
  Multiplicity = 1
  Basis Set: 6-311++G**
    Blend: 6-311++G**
  Basis Set: (6-311++G** AUX)
    Blend: AUG-CC-PVTZ-JKFIT

    Orbital Energies [Eh]
    ---------------------

    Doubly Occupied:

       1A    -20.519574     2A    -15.603235     3A    -15.601354
       4A    -15.586047     5A    -15.573976     6A    -15.572174
       7A    -15.570852     8A    -15.568132     9A    -11.374830
      10A    -11.363479    11A    -11.335405    12A    -11.333864
      13A    -11.333805    14A    -11.313937    15A    -11.313762
      16A    -11.300649    17A    -11.300452    18A    -11.299887
      19A    -11.299535    20A    -11.292781    21A    -11.288533
      22A    -11.279917    23A    -11.279401    24A    -11.264418
      25A    -11.263895    26A    -11.255974    27A    -11.254783
      28A    -11.252071    29A    -11.251732    30A    -11.249079
      31A    -11.246881    32A    -11.246721    33A    -11.242441
      34A    -11.239493    35A    -11.235011    36A    -11.230937
      37A    -11.224800    38A     -1.385533    39A     -1.344117
      40A     -1.277546    41A     -1.252616    42A     -1.250274
      43A     -1.240652    44A     -1.209315    45A     -1.207613
      46A     -1.161174    47A     -1.139234    48A     -1.114813
      49A     -1.074597    50A     -1.060070    51A     -1.047711
      52A     -1.037957    53A     -1.021614    54A     -1.007463
      55A     -1.004797    56A     -0.978208    57A     -0.946991
      58A     -0.930790    59A     -0.925725    60A     -0.900218
      61A     -0.871789    62A     -0.869277    63A     -0.857252
      64A     -0.841674    65A     -0.840871    66A     -0.833054
      67A     -0.825859    68A     -0.804658    69A     -0.777112
      70A     -0.753257    71A     -0.739079    72A     -0.730327
      73A     -0.720959    74A     -0.708734    75A     -0.698513
      76A     -0.682159    77A     -0.675980    78A     -0.666114
      79A     -0.663170    80A     -0.656306    81A     -0.651385
      82A     -0.643000    83A     -0.636033    84A     -0.628801
      85A     -0.624763    86A     -0.619980    87A     -0.611526
      88A     -0.606534    89A     -0.604588    90A     -0.601974
      91A     -0.599418    92A     -0.594872    93A     -0.593586
      94A     -0.592476    95A     -0.589057    96A     -0.584862
      97A     -0.580333    98A     -0.576065    99A     -0.561949
     100A     -0.560441   101A     -0.547507   102A     -0.544711
     103A     -0.543204   104A     -0.537888   105A     -0.523416
     106A     -0.520370   107A     -0.513393   108A     -0.508839
     109A     -0.506015   110A     -0.498086   111A     -0.494337
     112A     -0.493487   113A     -0.484507   114A     -0.478584
     115A     -0.455414   116A     -0.451539   117A     -0.441955
     118A     -0.430245   119A     -0.427005   120A     -0.425104
     121A     -0.414045   122A     -0.399375   123A     -0.389769
     124A     -0.387905   125A     -0.372737   126A     -0.345439
     127A     -0.344304   128A     -0.338061   129A     -0.321021
     130A     -0.313997   131A     -0.290354

  @DF-RHF Final Energy: -1572.26536013216287

   => Energetics <=

    Nuclear Repulsion Energy =           3659.1030417488336752
    One-Electron Energy =               -9416.1303241312598402
    Two-Electron Energy =                4184.7619222502635239
    Total Energy =                      -1572.2653601321626411

  Dipole Moment: [D]
     X:     0.4216      Y:     7.1004      Z:     0.0108     Total:     7.1129

  Basis Set: (6-311++G** AUX)
    Blend: AUG-CC-PVTZ-RI
	 Reference Energy          =   -1572.2653601321628685 [Eh]
	 Singles Energy            =      -0.0000000000000000 [Eh]
	 Same-Spin Energy          =      -1.4691064100078894 [Eh]
	 Opposite-Spin Energy      =      -4.0495575305297251 [Eh]
	 Correlation Energy        =      -5.5186639405376141 [Eh]
	 Total Energy              =   -1577.7840240727005039 [Eh]

	 ================> DF-SCS-MP2 Energies <==================
	-----------------------------------------------------------
	 SCS Same-Spin Scale       =       0.3333333333333333 [-]
	 SCS Opposite-Spin Scale   =       1.2000000000000000 [-]
	 SCS Same-Spin Energy      =      -0.4897021366692965 [Eh]
	 SCS Opposite-Spin Energy  =      -4.8594690366356703 [Eh]
	 SCS Correlation Energy    =      -5.3491711733049669 [Eh]
	 SCS Total Energy          =   -1577.6145313054678354 [Eh]
	-----------------------------------------------------------

*** Psi4 exiting successfully. Buy a developer a beer!
