                               Psi4 1.3.2 release

  ==> Input File <==

--------------------------------------------------------------------------
molecule {
0 1
 C   -0.142345    4.514968   -1.239071
 C    1.192055    4.400663   -0.825077
 C    1.768229    3.126971   -0.647277
 C    0.924356    2.026804   -0.940573
 N   -0.349693    2.113128   -1.344391
 C   -0.868281    3.342990   -1.480283
 C    3.191200    2.910027   -0.191529
 C    4.144178    3.917695    0.025575
 C    5.412711    3.477672    0.420444
 N    5.743436    2.203139    0.609223
 C    4.759583    1.303238    0.400773
 N    3.520965    1.619826    0.011308
 N    5.105386   -0.023405    0.621145
 C    4.398600   -1.269570    0.448995
 C    5.125584   -2.497975    0.417067
 C    4.384490   -3.676864    0.222277
 C    2.993426   -3.710044    0.063238
 C    2.293864   -2.500809    0.123121
 C    3.006272   -1.306700    0.313643
 N    0.881427   -2.331601   -0.023500
 C   -0.112213   -3.207350   -0.392201
 C   -1.469120   -2.604154   -0.703896
 C   -1.617392   -1.352985   -1.326744
 C   -2.886860   -0.818799   -1.549791
 C   -4.050734   -1.511505   -1.169565
 C   -3.889501   -2.779884   -0.578375
 C   -2.622512   -3.327895   -0.360897
 C   -5.432169   -0.880177   -1.347728
 N   -5.922361    0.044974   -0.308806
 C   -5.352475    1.409847   -0.236642
 C   -4.177357    1.572272    0.761943
 N   -4.477516    1.096410    2.132790
 C   -5.208297    2.023370    3.004872
 C   -4.998691   -0.290390    2.058642
 C   -6.165123   -0.483196    1.053599
 O    0.061311   -4.414242   -0.452800
 C    6.636118   -2.578029    0.557206
 H   -0.608294    5.486902   -1.371889
 H    1.750394    5.313084   -0.631159
 H    1.312058    1.016611   -0.868619
 H   -1.906442    3.388382   -1.805681
 H    3.954804    4.974177   -0.118828
 H    6.212972    4.196711    0.594214
 H    6.081009   -0.082405    0.871997
 H    4.907807   -4.631316    0.177384
 H    2.460592   -4.639282   -0.097968
 H    2.472840   -0.371466    0.359526
 H    0.568365   -1.378730    0.099776
 H   -0.737217   -0.783035   -1.614603
 H   -2.959612    0.167872   -2.006975
 H   -4.764520   -3.349472   -0.265654
 H   -2.505846   -4.302700    0.105967
 H   -5.448970   -0.335571   -2.302939
 H   -6.177181   -1.684991   -1.428587
 H   -5.126319    1.767776   -1.188952
 H   -6.503605    2.347904    0.329128
 H   -3.851277    3.017996    0.826220
 H   -3.202315    0.995288    0.377588
 H   -6.220992    2.204173    2.627485
 H   -4.677881    2.980140    3.068686
 H   -5.278348    1.611572    4.018184
 H   -5.277808   -0.638325    3.081335
 H   -3.872809   -1.143615    1.595376
 H   -7.371515    0.328457    1.652676
 H   -6.495421   -1.579440    1.004106
 H    6.967748   -2.209645    1.538350
 H    7.143778   -1.977167   -0.210578
 H    7.022361   -3.601990    0.459158
}
memory 20GB
set_num_threads(6)
psi4_io.set_default_path("/scratch/bdw2292")
set freeze_core True
E, wfn = energy('mp2/6-311++G**',return_wfn=True)
oeprop(wfn,"WIBERG_LOWDIN_INDICES")
clean()
--------------------------------------------------------------------------

    Molecular point group: c1

    Geometry (in Angstrom), charge = 0, multiplicity = 1:

       Center              X                  Y                   Z               Mass
    ------------   -----------------  -----------------  -----------------  -----------------
         C           -0.236586755992     4.528288918384    -1.214857774941    12.000000000000
         C            1.097813244008     4.413983918384    -0.800863774941    12.000000000000
         C            1.673987244008     3.140291918384    -0.623063774941    12.000000000000
         C            0.830114244008     2.040124918384    -0.916359774941    12.000000000000
         N           -0.443934755992     2.126448918384    -1.320177774941    14.003074004430
         C           -0.962522755992     3.356310918384    -1.456069774941    12.000000000000
         C            3.096958244008     2.923347918384    -0.167315774941    12.000000000000
         C            4.049936244008     3.931015918384     0.049788225059    12.000000000000
         C            5.318469244008     3.490992918384     0.444657225059    12.000000000000
         N            5.649194244008     2.216459918384     0.633436225059    14.003074004430
         C            4.665341244008     1.316558918384     0.424986225059    12.000000000000
         N            3.426723244008     1.633146918384     0.035521225059    14.003074004430
         N            5.011144244008    -0.010084081616     0.645358225059    14.003074004430
         C            4.304358244008    -1.256249081616     0.473208225059    12.000000000000
         C            5.031342244008    -2.484654081616     0.441280225059    12.000000000000
         C            4.290248244008    -3.663543081616     0.246490225059    12.000000000000
         C            2.899184244008    -3.696723081616     0.087451225059    12.000000000000
         C            2.199622244008    -2.487488081616     0.147334225059    12.000000000000
         C            2.912030244008    -1.293379081616     0.337856225059    12.000000000000
         N            0.787185244008    -2.318280081616     0.000713225059    14.003074004430
         C           -0.206454755992    -3.194029081616    -0.367987774941    12.000000000000
         C           -1.563361755992    -2.590833081616    -0.679682774941    12.000000000000
         C           -1.711633755992    -1.339664081616    -1.302530774941    12.000000000000
         C           -2.981101755992    -0.805478081616    -1.525577774941    12.000000000000
         C           -4.144975755992    -1.498184081616    -1.145351774941    12.000000000000
         C           -3.983742755992    -2.766563081616    -0.554161774941    12.000000000000
         C           -2.716753755992    -3.314574081616    -0.336683774941    12.000000000000
         C           -5.526410755992    -0.866856081616    -1.323514774941    12.000000000000
         N           -6.016602755992     0.058294918384    -0.284592774941    14.003074004430
         C           -5.446716755992     1.423167918384    -0.212428774941    12.000000000000
         C           -4.271598755992     1.585592918384     0.786156225059    12.000000000000
         N           -4.571757755992     1.109730918384     2.157003225059    14.003074004430
         C           -5.302538755992     2.036690918384     3.029085225059    12.000000000000
         C           -5.092932755992    -0.277069081616     2.082855225059    12.000000000000
         C           -6.259364755992    -0.469875081616     1.077812225059    12.000000000000
         O           -0.032930755992    -4.400921081616    -0.428586774941    15.994914619570
         C            6.541876244008    -2.564708081616     0.581419225059    12.000000000000
         H           -0.702535755992     5.500222918384    -1.347675774941     1.007825032230
         H            1.656152244008     5.326404918384    -0.606945774941     1.007825032230
         H            1.217816244008     1.029931918384    -0.844405774941     1.007825032230
         H           -2.000683755992     3.401702918384    -1.781467774941     1.007825032230
         H            3.860562244008     4.987497918384    -0.094614774941     1.007825032230
         H            6.118730244008     4.210031918384     0.618427225059     1.007825032230
         H            5.986767244008    -0.069084081616     0.896210225059     1.007825032230
         H            4.813565244008    -4.617995081616     0.201597225059     1.007825032230
         H            2.366350244008    -4.625961081616    -0.073754774941     1.007825032230
         H            2.378598244008    -0.358145081616     0.383739225059     1.007825032230
         H            0.474123244008    -1.365409081616     0.123989225059     1.007825032230
         H           -0.831458755992    -0.769714081616    -1.590389774941     1.007825032230
         H           -3.053853755992     0.181192918384    -1.982761774941     1.007825032230
         H           -4.858761755992    -3.336151081616    -0.241440774941     1.007825032230
         H           -2.600087755992    -4.289379081616     0.130180225059     1.007825032230
         H           -5.543211755992    -0.322250081616    -2.278725774941     1.007825032230
         H           -6.271422755992    -1.671670081616    -1.404373774941     1.007825032230
         H           -5.220560755992     1.781096918384    -1.164738774941     1.007825032230
         H           -6.597846755992     2.361224918384     0.353341225059     1.007825032230
         H           -3.945518755992     3.031316918384     0.850433225059     1.007825032230
         H           -3.296556755992     1.008608918384     0.401801225059     1.007825032230
         H           -6.315233755992     2.217493918384     2.651698225059     1.007825032230
         H           -4.772122755992     2.993460918384     3.092899225059     1.007825032230
         H           -5.372589755992     1.624892918384     4.042397225059     1.007825032230
         H           -5.372049755992    -0.625004081616     3.105548225059     1.007825032230
         H           -3.967050755992    -1.130294081616     1.619589225059     1.007825032230
         H           -7.465756755992     0.341777918384     1.676889225059     1.007825032230
         H           -6.589662755992    -1.566119081616     1.028319225059     1.007825032230
         H            6.873506244008    -2.196324081616     1.562563225059     1.007825032230
         H            7.049536244008    -1.963846081616    -0.186364774941     1.007825032230
         H            6.928119244008    -3.588669081616     0.483371225059     1.007825032230

  Charge       = 0
  Multiplicity = 1
  Basis Set: 6-311++G**
    Blend: 6-311++G**
  Basis Set: (6-311++G** AUX)
    Blend: AUG-CC-PVTZ-JKFIT

    Orbital Energies [Eh]
    ---------------------

    Doubly Occupied:

       1A    -20.522356     2A    -15.604404     3A    -15.601879
       4A    -15.587559     5A    -15.574715     6A    -15.574120
       7A    -15.569595     8A    -15.555586     9A    -11.376165
      10A    -11.364639    11A    -11.334911    12A    -11.314623
      13A    -11.314522    14A    -11.307005    15A    -11.304826
      16A    -11.301685    17A    -11.301644    18A    -11.301306
      19A    -11.299874    20A    -11.293020    21A    -11.289527
      22A    -11.281750    23A    -11.280750    24A    -11.265598
      25A    -11.258453    26A    -11.258223    27A    -11.254380
      28A    -11.252838    29A    -11.251373    30A    -11.247574
      31A    -11.247370    32A    -11.246748    33A    -11.244672
      34A    -11.240601    35A    -11.235682    36A    -11.230477
      37A    -11.225646    38A     -1.387117    39A     -1.344609
      40A     -1.278900    41A     -1.252242    42A     -1.247726
      43A     -1.241714    44A     -1.210009    45A     -1.201562
      46A     -1.163251    47A     -1.139974    48A     -1.115994
      49A     -1.075712    50A     -1.060955    51A     -1.048892
      52A     -1.038329    53A     -1.025224    54A     -1.008337
      55A     -1.002058    56A     -0.979310    57A     -0.947333
      58A     -0.928796    59A     -0.926673    60A     -0.901209
      61A     -0.873086    62A     -0.868085    63A     -0.858313
      64A     -0.849679    65A     -0.838444    66A     -0.835613
      67A     -0.825894    68A     -0.807035    69A     -0.778775
      70A     -0.754304    71A     -0.739926    72A     -0.731636
      73A     -0.722131    74A     -0.710271    75A     -0.699072
      76A     -0.683471    77A     -0.680840    78A     -0.668628
      79A     -0.660379    80A     -0.657601    81A     -0.652216
      82A     -0.649339    83A     -0.637972    84A     -0.630796
      85A     -0.624097    86A     -0.619296    87A     -0.613153
      88A     -0.609115    89A     -0.608885    90A     -0.604520
      91A     -0.602887    92A     -0.598778    93A     -0.596814
      94A     -0.591884    95A     -0.587722    96A     -0.581699
      97A     -0.579879    98A     -0.576395    99A     -0.567078
     100A     -0.561790   101A     -0.548167   102A     -0.544800
     103A     -0.539599   104A     -0.531968   105A     -0.527445
     106A     -0.524151   107A     -0.514831   108A     -0.509721
     109A     -0.509071   110A     -0.506862   111A     -0.496983
     112A     -0.494718   113A     -0.485123   114A     -0.481903
     115A     -0.458886   116A     -0.452242   117A     -0.443736
     118A     -0.429498   119A     -0.426703   120A     -0.421384
     121A     -0.414977   122A     -0.400617   123A     -0.394677
     124A     -0.380842   125A     -0.374014   126A     -0.347166
     127A     -0.346454   128A     -0.343402   129A     -0.315206
     130A     -0.311584   131A     -0.290673

  @DF-RHF Final Energy: -1572.32961197430495

   => Energetics <=

    Nuclear Repulsion Energy =           3790.7235990434483028
    One-Electron Energy =               -9679.4125902621690329
    Two-Electron Energy =                4316.3593792444162318
    Total Energy =                      -1572.3296119743044983

  Dipole Moment: [D]
     X:     1.1315      Y:     6.3099      Z:    -0.2947     Total:     6.4173

  Basis Set: (6-311++G** AUX)
    Blend: AUG-CC-PVTZ-RI
	 Reference Energy          =   -1572.3296119743049530 [Eh]
	 Singles Energy            =      -0.0000000000000000 [Eh]
	 Same-Spin Energy          =      -1.4719884970511332 [Eh]
	 Opposite-Spin Energy      =      -4.0495758839407410 [Eh]
	 Correlation Energy        =      -5.5215643809918742 [Eh]
	 Total Energy              =   -1577.8511763552967295 [Eh]

	 ================> DF-SCS-MP2 Energies <==================
	-----------------------------------------------------------
	 SCS Same-Spin Scale       =       0.3333333333333333 [-]
	 SCS Opposite-Spin Scale   =       1.2000000000000000 [-]
	 SCS Same-Spin Energy      =      -0.4906628323503777 [Eh]
	 SCS Opposite-Spin Energy  =      -4.8594910607288888 [Eh]
	 SCS Correlation Energy    =      -5.3501538930792663 [Eh]
	 SCS Total Energy          =   -1577.6797658673842761 [Eh]
	-----------------------------------------------------------

*** Psi4 exiting successfully. Buy a developer a beer!
