                               Psi4 1.3.2 release

  ==> Input File <==

--------------------------------------------------------------------------
molecule {
0 1
 C    2.799167   -4.768084   -1.283290
 C    3.894704   -3.947403   -0.983913
 C    3.709422   -2.563214   -0.790886
 C    2.378969   -2.096430   -0.932063
 N    1.321524   -2.863971   -1.225057
 C    1.535916   -4.177018   -1.391165
 C    4.836729   -1.610820   -0.473579
 C    6.193332   -1.966125   -0.389956
 C    7.080834   -0.918756   -0.123954
 N    6.717273    0.346791    0.056873
 C    5.392154    0.594971   -0.019364
 N    4.463803   -0.329567   -0.281066
 N    5.038321    1.921389    0.177473
 C    3.784707    2.631479    0.223628
 C    3.799299    4.058220    0.298984
 C    2.556033    4.710948    0.343768
 C    1.323533    4.047568    0.332988
 C    1.329260    2.651093    0.261440
 C    2.552469    1.967722    0.209074
 N    0.167504    1.836191    0.260241
 C   -0.292834    0.962171    1.215527
 C   -1.505627    0.110581    0.896408
 C   -1.880849   -0.260345   -0.405304
 C   -3.015209   -1.046821   -0.618093
 C   -3.800728   -1.508167    0.454893
 C   -3.394205   -1.158437    1.756395
 C   -2.260557   -0.373919    1.978176
 C   -5.058967   -2.343860    0.215266
 N   -6.340120   -1.649997   -0.007905
 C   -6.553195   -0.937109   -1.288068
 C   -6.224242    0.577768   -1.247946
 N   -6.890204    1.322942   -0.154813
 C   -8.278253    1.735334   -0.392115
 C   -6.620441    0.624665    1.123784
 C   -6.942609   -0.892338    1.113248
 O    0.238645    0.866412    2.308699
 C    5.075198    4.882639    0.329672
 H    2.919981   -5.837073   -1.431279
 H    4.873449   -4.412747   -0.899796
 H    2.158014   -1.041186   -0.819115
 H    0.656996   -4.775428   -1.625072
 H    6.569731   -2.970590   -0.538711
 H    8.151481   -1.109907   -0.056475
 H    5.872756    2.468579    0.326251
 H    2.530198    5.798493    0.404840
 H    0.388738    4.591840    0.390675
 H    2.548150    0.889722    0.184971
 H   -0.390513    2.002562   -0.565419
 H   -1.277887    0.059990   -1.250782
 H   -3.287142   -1.306064   -1.641231
 H   -3.969919   -1.497537    2.617284
 H   -1.950917   -0.112662    2.987121
 H   -4.887697   -2.990760   -0.657354
 H   -5.203127   -3.010921    1.077689
 H   -6.069579   -1.435434   -2.078129
 H   -8.104536   -1.013015   -1.596427
 H   -6.625961    1.155965   -2.518522
 H   -4.935356    0.747048   -1.112988
 H   -8.939235    0.865487   -0.479388
 H   -8.345527    2.323896   -1.314210
 H   -8.631209    2.364527    0.432917
 H   -7.338070    1.227165    2.124601
 H   -5.221299    0.790141    1.412615
 H   -8.507384   -0.979399    0.931519
 H   -6.718429   -1.361137    2.051785
 H    5.700762    4.687996   -0.552791
 H    5.678657    4.653926    1.219596
 H    4.887594    5.964981    0.347375
}
memory 20GB
set_num_threads(6)
psi4_io.set_default_path("/scratch/bdw2292")
set freeze_core True
E, wfn = energy('mp2/6-311++G**',return_wfn=True)
oeprop(wfn,"WIBERG_LOWDIN_INDICES")
clean()
--------------------------------------------------------------------------

    Molecular point group: c1

    Geometry (in Angstrom), charge = 0, multiplicity = 1:

       Center              X                  Y                   Z               Mass
    ------------   -----------------  -----------------  -----------------  -----------------
         C            2.702557121072    -4.801858984056    -1.329508963302    12.000000000000
         C            3.798094121072    -3.981177984056    -1.030131963302    12.000000000000
         C            3.612812121072    -2.596988984056    -0.837104963302    12.000000000000
         C            2.282359121072    -2.130204984056    -0.978281963302    12.000000000000
         N            1.224914121072    -2.897745984056    -1.271275963302    14.003074004430
         C            1.439306121072    -4.210792984056    -1.437383963302    12.000000000000
         C            4.740119121072    -1.644594984056    -0.519797963302    12.000000000000
         C            6.096722121072    -1.999899984056    -0.436174963302    12.000000000000
         C            6.984224121072    -0.952530984056    -0.170172963302    12.000000000000
         N            6.620663121072     0.313016015944     0.010654036698    14.003074004430
         C            5.295544121072     0.561196015944    -0.065582963302    12.000000000000
         N            4.367193121072    -0.363341984056    -0.327284963302    14.003074004430
         N            4.941711121072     1.887614015944     0.131254036698    14.003074004430
         C            3.688097121072     2.597704015944     0.177409036698    12.000000000000
         C            3.702689121072     4.024445015944     0.252765036698    12.000000000000
         C            2.459423121072     4.677173015944     0.297549036698    12.000000000000
         C            1.226923121072     4.013793015944     0.286769036698    12.000000000000
         C            1.232650121072     2.617318015944     0.215221036698    12.000000000000
         C            2.455859121072     1.933947015944     0.162855036698    12.000000000000
         N            0.070894121072     1.802416015944     0.214022036698    14.003074004430
         C           -0.389443878928     0.928396015944     1.169308036698    12.000000000000
         C           -1.602236878928     0.076806015944     0.850189036698    12.000000000000
         C           -1.977458878928    -0.294119984056    -0.451522963302    12.000000000000
         C           -3.111818878928    -1.080595984056    -0.664311963302    12.000000000000
         C           -3.897337878928    -1.541941984056     0.408674036698    12.000000000000
         C           -3.490814878928    -1.192211984056     1.710176036698    12.000000000000
         C           -2.357166878928    -0.407693984056     1.931957036698    12.000000000000
         C           -5.155576878928    -2.377634984056     0.169047036698    12.000000000000
         N           -6.436729878928    -1.683771984056    -0.054123963302    14.003074004430
         C           -6.649804878928    -0.970883984056    -1.334286963302    12.000000000000
         C           -6.320851878928     0.543993015944    -1.294164963302    12.000000000000
         N           -6.986813878928     1.289167015944    -0.201031963302    14.003074004430
         C           -8.374862878928     1.701559015944    -0.438333963302    12.000000000000
         C           -6.717050878928     0.590890015944     1.077565036698    12.000000000000
         C           -7.039218878928    -0.926112984056     1.067029036698    12.000000000000
         O            0.142035121072     0.832637015944     2.262480036698    15.994914619570
         C            4.978588121072     4.848864015944     0.283453036698    12.000000000000
         H            2.823371121072    -5.870847984056    -1.477497963302     1.007825032230
         H            4.776839121072    -4.446521984056    -0.946014963302     1.007825032230
         H            2.061404121072    -1.074960984056    -0.865333963302     1.007825032230
         H            0.560386121072    -4.809202984056    -1.671290963302     1.007825032230
         H            6.473121121072    -3.004364984056    -0.584929963302     1.007825032230
         H            8.054871121072    -1.143681984056    -0.102693963302     1.007825032230
         H            5.776146121072     2.434804015944     0.280032036698     1.007825032230
         H            2.433588121072     5.764718015944     0.358621036698     1.007825032230
         H            0.292128121072     4.558065015944     0.344456036698     1.007825032230
         H            2.451540121072     0.855947015944     0.138752036698     1.007825032230
         H           -0.487122878928     1.968787015944    -0.611637963302     1.007825032230
         H           -1.374496878928     0.026215015944    -1.297000963302     1.007825032230
         H           -3.383751878928    -1.339838984056    -1.687449963302     1.007825032230
         H           -4.066528878928    -1.531311984056     2.571065036698     1.007825032230
         H           -2.047526878928    -0.146436984056     2.940902036698     1.007825032230
         H           -4.984306878928    -3.024534984056    -0.703572963302     1.007825032230
         H           -5.299736878928    -3.044695984056     1.031470036698     1.007825032230
         H           -6.166188878928    -1.469208984056    -2.124347963302     1.007825032230
         H           -8.201145878928    -1.046789984056    -1.642645963302     1.007825032230
         H           -6.722570878928     1.122190015944    -2.564740963302     1.007825032230
         H           -5.031965878928     0.713273015944    -1.159206963302     1.007825032230
         H           -9.035844878928     0.831712015944    -0.525606963302     1.007825032230
         H           -8.442136878928     2.290121015944    -1.360428963302     1.007825032230
         H           -8.727818878928     2.330752015944     0.386698036698     1.007825032230
         H           -7.434679878928     1.193390015944     2.078382036698     1.007825032230
         H           -5.317908878928     0.756366015944     1.366396036698     1.007825032230
         H           -8.603993878928    -1.013173984056     0.885300036698     1.007825032230
         H           -6.815038878928    -1.394911984056     2.005566036698     1.007825032230
         H            5.604152121072     4.654221015944    -0.599009963302     1.007825032230
         H            5.582047121072     4.620151015944     1.173377036698     1.007825032230
         H            4.790984121072     5.931206015944     0.301156036698     1.007825032230

  Charge       = 0
  Multiplicity = 1
  Basis Set: 6-311++G**
    Blend: 6-311++G**
  Basis Set: (6-311++G** AUX)
    Blend: AUG-CC-PVTZ-JKFIT

    Orbital Energies [Eh]
    ---------------------

    Doubly Occupied:

       1A    -20.516276     2A    -15.600153     3A    -15.590948
       4A    -15.575103     5A    -15.573688     6A    -15.568441
       7A    -15.563753     8A    -15.557853     9A    -11.370378
      10A    -11.361808    11A    -11.328115    12A    -11.318778
      13A    -11.315331    14A    -11.307964    15A    -11.307431
      16A    -11.305322    17A    -11.299229    18A    -11.291141
      19A    -11.289609    20A    -11.282530    21A    -11.281717
      22A    -11.280257    23A    -11.270831    24A    -11.258889
      25A    -11.257533    26A    -11.256381    27A    -11.256047
      28A    -11.254133    29A    -11.249398    30A    -11.248146
      31A    -11.246003    32A    -11.245973    33A    -11.243521
      34A    -11.242753    35A    -11.238362    36A    -11.236619
      37A    -11.228273    38A     -1.383485    39A     -1.338990
      40A     -1.267610    41A     -1.248082    42A     -1.247616
      43A     -1.237482    44A     -1.203470    45A     -1.201900
      46A     -1.162780    47A     -1.139802    48A     -1.107399
      49A     -1.069241    50A     -1.059472    51A     -1.041420
      52A     -1.037199    53A     -1.025194    54A     -1.008432
      55A     -0.998582    56A     -0.978297    57A     -0.945699
      58A     -0.927749    59A     -0.918758    60A     -0.896902
      61A     -0.868769    62A     -0.863850    63A     -0.850745
      64A     -0.843172    65A     -0.834135    66A     -0.831589
      67A     -0.821259    68A     -0.805561    69A     -0.782371
      70A     -0.749550    71A     -0.740847    72A     -0.726896
      73A     -0.717861    74A     -0.704985    75A     -0.693541
      76A     -0.681037    77A     -0.678304    78A     -0.662652
      79A     -0.658300    80A     -0.653793    81A     -0.652346
      82A     -0.648383    83A     -0.636664    84A     -0.630575
      85A     -0.623971    86A     -0.617104    87A     -0.613877
      88A     -0.605695    89A     -0.602524    90A     -0.600525
      91A     -0.595970    92A     -0.590672    93A     -0.586038
      94A     -0.583407    95A     -0.582029    96A     -0.579661
      97A     -0.578699    98A     -0.570881    99A     -0.558075
     100A     -0.552039   101A     -0.548815   102A     -0.540830
     103A     -0.535056   104A     -0.529757   105A     -0.522874
     106A     -0.518695   107A     -0.515523   108A     -0.509010
     109A     -0.506399   110A     -0.502071   111A     -0.499050
     112A     -0.494950   113A     -0.481824   114A     -0.472057
     115A     -0.444576   116A     -0.444286   117A     -0.431486
     118A     -0.429330   119A     -0.423740   120A     -0.409283
     121A     -0.407091   122A     -0.392482   123A     -0.391918
     124A     -0.382074   125A     -0.369763   126A     -0.346418
     127A     -0.342194   128A     -0.338688   129A     -0.325336
     130A     -0.312098   131A     -0.294734

  @DF-RHF Final Energy: -1572.29305932657917

   => Energetics <=

    Nuclear Repulsion Energy =           3697.4741332428257010
    One-Electron Energy =               -9493.7243811953539989
    Two-Electron Energy =                4223.9571886259491293
    Total Energy =                      -1572.2930593265791686

  Dipole Moment: [D]
     X:     2.4750      Y:    -2.2336      Z:    -2.9895     Total:     4.4779

  Basis Set: (6-311++G** AUX)
    Blend: AUG-CC-PVTZ-RI
	 Reference Energy          =   -1572.2930593265791686 [Eh]
	 Singles Energy            =      -0.0000000000000000 [Eh]
	 Same-Spin Energy          =      -1.4709498355252490 [Eh]
	 Opposite-Spin Energy      =      -4.0508124791502720 [Eh]
	 Correlation Energy        =      -5.5217623146755210 [Eh]
	 Total Energy              =   -1577.8148216412546390 [Eh]

	 ================> DF-SCS-MP2 Energies <==================
	-----------------------------------------------------------
	 SCS Same-Spin Scale       =       0.3333333333333333 [-]
	 SCS Opposite-Spin Scale   =       1.2000000000000000 [-]
	 SCS Same-Spin Energy      =      -0.4903166118417497 [Eh]
	 SCS Opposite-Spin Energy  =      -4.8609749749803264 [Eh]
	 SCS Correlation Energy    =      -5.3512915868220761 [Eh]
	 SCS Total Energy          =   -1577.6443509134012402 [Eh]
	-----------------------------------------------------------

*** Psi4 exiting successfully. Buy a developer a beer!
