 Gaussian 09, Revision A.02,
 Gaussian 09:  EM64L-G09RevA.02 11-Jun-2009

 --------------------------------------------------
 #P opt=(,maxcycle=400) wB97XD/6-31G* MaxDisk=100GB
 --------------------------------------------------

 -----------------------------------------------------------------
 MOLECULE0 Rotatable Bond Optimization on g2-node38.bme.utexas.edu
 -----------------------------------------------------------------
 Symbolic Z-matrix:
 Charge =  0 Multiplicity = 1

 SCF Done:  E(RwB97XD) =  -1581.49397944     A.U. after   16 cycles
 SCF Done:  E(RwB97XD) =  -1581.55459081     A.U. after   13 cycles
 SCF Done:  E(RwB97XD) =  -1581.65425763     A.U. after   14 cycles
 SCF Done:  E(RwB97XD) =  -1581.70561269     A.U. after   14 cycles
 SCF Done:  E(RwB97XD) =  -1581.72753604     A.U. after   14 cycles
 SCF Done:  E(RwB97XD) =  -1581.73115482     A.U. after   14 cycles
 SCF Done:  E(RwB97XD) =  -1581.73436690     A.U. after   14 cycles
 SCF Done:  E(RwB97XD) =  -1581.73678404     A.U. after   14 cycles
 SCF Done:  E(RwB97XD) =  -1581.74248040     A.U. after   17 cycles
 SCF Done:  E(RwB97XD) =  -1581.74905162     A.U. after   17 cycles
 SCF Done:  E(RwB97XD) =  -1581.76129141     A.U. after   12 cycles
 SCF Done:  E(RwB97XD) =  -1581.76130480     A.U. after   12 cycles
 SCF Done:  E(RwB97XD) =  -1581.76131164     A.U. after   12 cycles
 SCF Done:  E(RwB97XD) =  -1581.76131649     A.U. after   12 cycles
 SCF Done:  E(RwB97XD) =  -1581.76132049     A.U. after   10 cycles
 SCF Done:  E(RwB97XD) =  -1581.76132167     A.U. after   10 cycles
 SCF Done:  E(RwB97XD) =  -1581.76132275     A.U. after    8 cycles
 SCF Done:  E(RwB97XD) =  -1581.76132313     A.U. after    8 cycles
 SCF Done:  E(RwB97XD) =  -1581.76132319     A.U. after    8 cycles
 SCF Done:  E(RwB97XD) =  -1581.76132321     A.U. after    8 cycles
 Optimization completed.
    -- Stationary point found.

                         Standard orientation:
 ---------------------------------------------------------------------
 Center     Atomic      Atomic             Coordinates (Angstroms)
 Number     Number       Type             X           Y           Z
 ---------------------------------------------------------------------
      1          6           0        0.089896    4.464318   -1.500906
      2          6           0        1.419230    4.254362   -1.155922
      3          6           0        1.768827    3.082361   -0.486231
      4          6           0        0.739548    2.178067   -0.193850
      5          7           0       -0.535903    2.358918   -0.529556
      6          6           0       -0.844878    3.487601   -1.173955
      7          6           0        3.169186    2.753069   -0.118935
      8          6           0        4.157530    3.711566    0.084521
      9          6           0        5.425704    3.226510    0.401371
     10          7           0        5.713488    1.938094    0.518140
     11          6           0        4.681296    1.093111    0.316356
     12          7           0        3.434803    1.449234    0.003706
     13          7           0        5.001480   -0.230041    0.449848
     14          6           0        4.212733   -1.388549    0.334157
     15          6           0        4.827090   -2.635933    0.571864
     16          6           0        4.039039   -3.777567    0.458100
     17          6           0        2.683894   -3.745584    0.134366
     18          6           0        2.100165   -2.502759   -0.090996
     19          6           0        2.865789   -1.340011   -0.003856
     20          7           0        0.746415   -2.291482   -0.404163
     21          6           0       -0.272593   -3.192936   -0.563316
     22          6           0       -1.594564   -2.538262   -0.855047
     23          6           0       -1.705190   -1.306512   -1.507463
     24          6           0       -2.948955   -0.717384   -1.685594
     25          6           0       -4.108217   -1.329487   -1.208752
     26          6           0       -3.994840   -2.586167   -0.608920
     27          6           0       -2.754909   -3.188284   -0.434999
     28          6           0       -5.450154   -0.619647   -1.297079
     29          7           0       -5.793418    0.304463   -0.228814
     30          6           0       -5.090906    1.583265   -0.178721
     31          6           0       -3.859318    1.594866    0.744028
     32          7           0       -4.146633    1.084725    2.082610
     33          6           0       -4.893375    2.008172    2.917420
     34          6           0       -4.749097   -0.241886    1.986416
     35          6           0       -6.002472   -0.269174    1.095986
     36          8           0       -0.148221   -4.401098   -0.447517
     37          6           0        6.285837   -2.735802    0.940087
     38          1           0       -0.215704    5.362129   -2.027439
     39          1           0        2.176682    4.983198   -1.429564
     40          1           0        0.971261    1.267676    0.352084
     41          1           0       -1.892314    3.613437   -1.439671
     42          1           0        3.963734    4.775228    0.023913
     43          1           0        6.250475    3.915419    0.572742
     44          1           0        5.973813   -0.361496    0.685278
     45          1           0        4.504363   -4.743634    0.636765
     46          1           0        2.095987   -4.650213    0.065581
     47          1           0        2.413166   -0.381601   -0.205639
     48          1           0        0.472493   -1.320728   -0.402875
     49          1           0       -0.828208   -0.802658   -1.904653
     50          1           0       -3.015162    0.244977   -2.187032
     51          1           0       -4.891182   -3.092166   -0.257271
     52          1           0       -2.663884   -4.160543    0.038449
     53          1           0       -5.496464   -0.059536   -2.239204
     54          1           0       -6.245480   -1.374526   -1.341392
     55          1           0       -4.804643    1.867199   -1.198463
     56          1           0       -5.806450    2.343193    0.170015
     57          1           0       -3.467328    2.615477    0.833020
     58          1           0       -3.057017    0.984305    0.317103
     59          1           0       -5.906572    2.263360    2.559124
     60          1           0       -4.329916    2.943282    3.008841
     61          1           0       -4.996469    1.579121    3.920281
     62          1           0       -4.998485   -0.591121    2.995943
     63          1           0       -3.991756   -0.922519    1.580275
     64          1           0       -6.807373    0.296584    1.588891
     65          1           0       -6.366408   -1.296727    0.982654
     66          1           0        6.512689   -2.203578    1.873555
     67          1           0        6.940374   -2.330104    0.157039
     68          1           0        6.572130   -3.779980    1.088601
 ---------------------------------------------------------------------

 The electronic state is 1-A.
 Alpha  occ. eigenvalues --  -19.23433 -14.49326 -14.48441 -14.46515 -14.46103
 Alpha  occ. eigenvalues --  -14.45826 -14.43397 -14.42641 -10.41800 -10.40195
 Alpha  occ. eigenvalues --  -10.37605 -10.36327 -10.35190 -10.35009 -10.34671
 Alpha  occ. eigenvalues --  -10.34056 -10.34004 -10.33565 -10.32779 -10.32328
 Alpha  occ. eigenvalues --  -10.31842 -10.31122 -10.31071 -10.31024 -10.30957
 Alpha  occ. eigenvalues --  -10.30790 -10.30406 -10.30359 -10.30329 -10.30274
 Alpha  occ. eigenvalues --  -10.30269 -10.30220 -10.30038 -10.29943 -10.29545
 Alpha  occ. eigenvalues --  -10.28642 -10.28331  -1.13537  -1.12294  -1.06207
 Alpha  occ. eigenvalues --   -1.04590  -1.03694  -1.03491  -1.00700  -0.99229
 Alpha  occ. eigenvalues --   -0.96197  -0.94685  -0.93047  -0.89747  -0.88146
 Alpha  occ. eigenvalues --   -0.87345  -0.86255  -0.85145  -0.84577  -0.83775
 Alpha  occ. eigenvalues --   -0.81691  -0.79507  -0.78208  -0.77654  -0.76306
 Alpha  occ. eigenvalues --   -0.73836  -0.72962  -0.72894  -0.72599  -0.70852
 Alpha  occ. eigenvalues --   -0.70438  -0.69536  -0.68002  -0.66455  -0.65190
 Alpha  occ. eigenvalues --   -0.63502  -0.63278  -0.62277  -0.61732  -0.60197
 Alpha  occ. eigenvalues --   -0.58837  -0.57912  -0.57465  -0.56521  -0.56122
 Alpha  occ. eigenvalues --   -0.55775  -0.55120  -0.55021  -0.54568  -0.54276
 Alpha  occ. eigenvalues --   -0.53615  -0.53136  -0.53005  -0.52292  -0.52080
 Alpha  occ. eigenvalues --   -0.51901  -0.51600  -0.51263  -0.50941  -0.50570
 Alpha  occ. eigenvalues --   -0.50463  -0.50373  -0.49940  -0.49430  -0.48338
 Alpha  occ. eigenvalues --   -0.47231  -0.46770  -0.46459  -0.46271  -0.46007
 Alpha  occ. eigenvalues --   -0.45756  -0.44879  -0.44512  -0.44004  -0.43898
 Alpha  occ. eigenvalues --   -0.43448  -0.43038  -0.42159  -0.41650  -0.41249
 Alpha  occ. eigenvalues --   -0.40582  -0.40461  -0.39845  -0.38173  -0.37562
 Alpha  occ. eigenvalues --   -0.35569  -0.35307  -0.33870  -0.33511  -0.33388
 Alpha  occ. eigenvalues --   -0.32999  -0.32022  -0.30471  -0.29142  -0.26990
 Alpha  occ. eigenvalues --   -0.24645
 Alpha virt. eigenvalues --   -0.00245   0.03015   0.03277   0.04463   0.06299
 Alpha virt. eigenvalues --    0.07286   0.08378   0.10604   0.14175   0.15009
 Alpha virt. eigenvalues --    0.15500   0.16433   0.17304   0.17630   0.18452

 Mulliken atomic charges:
              1
     1  C   -0.194976
     2  C   -0.155847
     3  C    0.036909
     4  C    0.009587
     5  N   -0.425788
     6  C    0.024678
     7  C    0.296054
     8  C   -0.256505
     9  C    0.049763
    10  N   -0.495260
    11  C    0.722286
    12  N   -0.570682
    13  N   -0.811475
    14  C    0.292524
    15  C    0.118353
    16  C   -0.240674
    17  C   -0.190507
    18  C    0.366852
    19  C   -0.276376
    20  N   -0.772191
    21  C    0.599049
    22  C    0.016490
    23  C   -0.205546
    24  C   -0.213069
    25  C    0.157675
    26  C   -0.222655
    27  C   -0.178633
    28  C   -0.263174
    29  N   -0.381580
    30  C   -0.185581
    31  C   -0.181932
    32  N   -0.384829
    33  C   -0.348649
    34  C   -0.181463
    35  C   -0.186246
    36  O   -0.517255
    37  C   -0.609298
    38  H    0.185661
    39  H    0.186012
    40  H    0.196476
    41  H    0.178715
    42  H    0.181201
    43  H    0.189588
    44  H    0.370264
    45  H    0.160390
    46  H    0.213828
    47  H    0.204624
    48  H    0.364205
    49  H    0.176095
    50  H    0.164507
    51  H    0.164972
    52  H    0.199001
    53  H    0.168257
    54  H    0.168932
    55  H    0.145854
    56  H    0.157107
    57  H    0.147202
    58  H    0.185490
    59  H    0.133129
    60  H    0.165342
    61  H    0.165886
    62  H    0.151971
    63  H    0.171187
    64  H    0.159102
    65  H    0.152493
    66  H    0.181106
    67  H    0.180443
    68  H    0.190932
 Sum of Mulliken atomic charges =   0.00000

 Dipole moment (field-independent basis, Debye):
    X=              1.2736    Y=              6.3574    Z=             -0.7019  Tot=              6.5216
 Quadrupole moment (field-independent basis, Debye-Ang):
   XX=           -194.9330   YY=           -202.2186   ZZ=           -216.1999
   XY=              5.6618   XZ=              1.6323   YZ=            -12.1183

 Normal termination of Gaussian 09 at Thu Feb 27 18:27:01 2020.
