 Gaussian 09, Revision A.02,
 Gaussian 09:  EM64L-G09RevA.02 11-Jun-2009

 --------------------------------------------
 #P MP2/6-311G** Sp Density=MP2 MaxDisk=150GB
 --------------------------------------------

 ----------------------------------------------------------------------
 MonoMethylPhosphate1H Gaussian SP Calculation on node37.bme.utexas.edu
 ----------------------------------------------------------------------
 Symbolic Z-matrix:
 Charge = -1 Multiplicity = 1

                         Standard orientation:
 ---------------------------------------------------------------------
 Center     Atomic      Atomic             Coordinates (Angstroms)
 Number     Number       Type             X           Y           Z
 ---------------------------------------------------------------------
      1          1           0       -0.328854    1.999463   -0.506558
      2          8           0       -0.510748    1.181984   -0.986846
      3         15           0       -0.494223   -0.068885    0.093317
      4          8           0        0.941986   -0.783698   -0.275542
      5          8           0       -1.541580   -1.052931   -0.319025
      6          8           0       -0.434458    0.519977    1.473210
      7          6           0        2.126645   -0.049106   -0.022784
      8          1           0        2.138173    0.889156   -0.591882
      9          1           0        2.970873   -0.665251   -0.341976
     10          1           0        2.231679    0.181891    1.042986
 ---------------------------------------------------------------------

 SCF Done:  E(RHF) =  -680.612228756     A.U. after   13 cycles
 E2 =    -0.1067124597D+01 EUMP2 =    -0.68167935335286D+03

 The electronic state is 1-A.
 Alpha  occ. eigenvalues --  -79.87187 -20.39694 -20.39368 -20.29333 -20.27985
 Alpha  occ. eigenvalues --  -11.13943  -7.39492  -5.29342  -5.29287  -5.29240
 Alpha  occ. eigenvalues --   -1.23492  -1.18257  -1.09475  -1.05453  -0.79141
 Alpha  occ. eigenvalues --   -0.60388  -0.53172  -0.48784  -0.47462  -0.45993
 Alpha  occ. eigenvalues --   -0.40029  -0.38179  -0.34136  -0.33097  -0.30622
 Alpha  occ. eigenvalues --   -0.27762  -0.25860  -0.23942  -0.22345
 Alpha virt. eigenvalues --    0.28507   0.31711   0.35586   0.36829   0.42241
 Alpha virt. eigenvalues --    0.43962   0.45379   0.46742   0.57102   0.59174
 Alpha virt. eigenvalues --    0.61457   0.62210   0.64276   0.67404   0.75785

 Mulliken atomic charges:
              1
     1  H    0.242850
     2  O   -0.602315
     3  P    1.205981
     4  O   -0.544461
     5  O   -0.685256
     6  O   -0.750231
     7  C   -0.067583
     8  H    0.054856
     9  H    0.060692
    10  H    0.085468
 Sum of Mulliken atomic charges =  -1.00000

 Dipole moment (field-independent basis, Debye):
    X=              4.9619    Y=              2.9406    Z=             -0.9051  Tot=              5.8384
 Quadrupole moment (field-independent basis, Debye-Ang):
   XX=            -50.9630   YY=            -46.8805   ZZ=            -54.4617
   XY=             -2.6942   XZ=             -0.2307   YZ=             -2.4834

 Normal termination of Gaussian 09 at Tue Apr  7 09:47:54 2020.
