 Gaussian 09, Revision A.02,
 Gaussian 09:  EM64L-G09RevA.02 11-Jun-2009

 ----------------------------------------------------------------------
 #P opt=(maxcycle=400) wB97XD/6-31G* Guess=INDO MaxDisk=150GB SCRF=(PCM
 )
 ----------------------------------------------------------------------

 MonoMethylPhosphate1H Gaussian OPT Calculation on node37.bme.utexas.ed
 u
 ----------------------------------------------------------------------
 Symbolic Z-matrix:
 Charge = -1 Multiplicity = 1

 SCF Done:  E(RwB97XD) =  -682.833590580     A.U. after   15 cycles
 SCF Done:  E(RwB97XD) =  -682.863923157     A.U. after   13 cycles
 SCF Done:  E(RwB97XD) =  -682.870369639     A.U. after   12 cycles
 SCF Done:  E(RwB97XD) =  -682.871758889     A.U. after   12 cycles
 SCF Done:  E(RwB97XD) =  -682.872173738     A.U. after   11 cycles
 SCF Done:  E(RwB97XD) =  -682.872338139     A.U. after   11 cycles
 SCF Done:  E(RwB97XD) =  -682.872597565     A.U. after   11 cycles
 SCF Done:  E(RwB97XD) =  -682.872794780     A.U. after   11 cycles
 SCF Done:  E(RwB97XD) =  -682.873217095     A.U. after   12 cycles
 SCF Done:  E(RwB97XD) =  -682.873328841     A.U. after   11 cycles
 SCF Done:  E(RwB97XD) =  -682.873384830     A.U. after   10 cycles
 SCF Done:  E(RwB97XD) =  -682.873414196     A.U. after   10 cycles
 SCF Done:  E(RwB97XD) =  -682.873436105     A.U. after   10 cycles
 SCF Done:  E(RwB97XD) =  -682.873446140     A.U. after   10 cycles
 SCF Done:  E(RwB97XD) =  -682.873447480     A.U. after    9 cycles
 SCF Done:  E(RwB97XD) =  -682.873448872     A.U. after    8 cycles
 SCF Done:  E(RwB97XD) =  -682.873449347     A.U. after    8 cycles
 SCF Done:  E(RwB97XD) =  -682.873449401     A.U. after    7 cycles
 Optimization completed.
    -- Stationary point found.

                         Standard orientation:
 ---------------------------------------------------------------------
 Center     Atomic      Atomic             Coordinates (Angstroms)
 Number     Number       Type             X           Y           Z
 ---------------------------------------------------------------------
      1          1           0       -0.328854    1.999463   -0.506558
      2          8           0       -0.510748    1.181984   -0.986846
      3         15           0       -0.494223   -0.068885    0.093317
      4          8           0        0.941986   -0.783698   -0.275542
      5          8           0       -1.541580   -1.052931   -0.319025
      6          8           0       -0.434458    0.519977    1.473210
      7          6           0        2.126645   -0.049106   -0.022784
      8          1           0        2.138173    0.889156   -0.591882
      9          1           0        2.970873   -0.665252   -0.341976
     10          1           0        2.231679    0.181891    1.042986
 ---------------------------------------------------------------------

 The electronic state is 1-A.
 Alpha  occ. eigenvalues --  -77.32551 -19.26315 -19.26114 -19.18706 -19.18610
 Alpha  occ. eigenvalues --  -10.32900  -6.73339  -4.88380  -4.88249  -4.88014
 Alpha  occ. eigenvalues --   -1.13936  -1.08977  -1.02657  -0.99254  -0.77462
 Alpha  occ. eigenvalues --   -0.64232  -0.58033  -0.52849  -0.52491  -0.50816
 Alpha  occ. eigenvalues --   -0.46228  -0.43780  -0.41255  -0.38927  -0.36964
 Alpha  occ. eigenvalues --   -0.36239  -0.33774  -0.32749  -0.31494
 Alpha virt. eigenvalues --    0.16819   0.21926   0.22445   0.24909   0.25914
 Alpha virt. eigenvalues --    0.27859   0.30339   0.30914   0.33185   0.43807
 Alpha virt. eigenvalues --    0.44578   0.47463   0.56235   0.62818   0.67001

 Mulliken atomic charges:
              1
     1  H    0.441448
     2  O   -0.739301
     3  P    1.042470
     4  O   -0.565153
     5  O   -0.692834
     6  O   -0.726697
     7  C   -0.258942
     8  H    0.158278
     9  H    0.175673
    10  H    0.165058
 Sum of Mulliken atomic charges =  -1.00000

 Dipole moment (field-independent basis, Debye):
    X=              6.1325    Y=              3.6940    Z=             -1.0626  Tot=              7.2376
 Quadrupole moment (field-independent basis, Debye-Ang):
   XX=            -47.3557   YY=            -44.3085   ZZ=            -52.7486
   XY=             -2.8174   XZ=             -0.3101   YZ=             -2.6990

 Normal termination of Gaussian 09 at Tue Apr  7 09:45:13 2020.
