 Gaussian 09, Revision A.02,
 Gaussian 09:  EM64L-G09RevA.02 11-Jun-2009

 ----------------------------------------------------------------------
 #P MP2/6-311++G(2d,2p) Sp Density=MP2 SCF=Save Guess=Huckel MaxDisk=15
 0GB Pop=NBORead
 ----------------------------------------------------------------------

 ----------------------------------------------------------------------
 MonoMethylPhosphate1H Gaussian SP Calculation on node37.bme.utexas.edu
 ----------------------------------------------------------------------
 Symbolic Z-matrix:
 Charge = -1 Multiplicity = 1

                         Standard orientation:
 ---------------------------------------------------------------------
 Center     Atomic      Atomic             Coordinates (Angstroms)
 Number     Number       Type             X           Y           Z
 ---------------------------------------------------------------------
      1          1           0       -0.328854    1.999463   -0.506558
      2          8           0       -0.510748    1.181984   -0.986846
      3         15           0       -0.494223   -0.068885    0.093317
      4          8           0        0.941986   -0.783698   -0.275542
      5          8           0       -1.541580   -1.052931   -0.319025
      6          8           0       -0.434458    0.519977    1.473210
      7          6           0        2.126645   -0.049106   -0.022784
      8          1           0        2.138173    0.889156   -0.591882
      9          1           0        2.970873   -0.665251   -0.341976
     10          1           0        2.231679    0.181891    1.042986
 ---------------------------------------------------------------------

 SCF Done:  E(RHF) =  -680.664531294     A.U. after   14 cycles
 E2 =    -0.1177285440D+01 EUMP2 =    -0.68184181673403D+03

 The electronic state is 1-A.
 Alpha  occ. eigenvalues --  -79.87268 -20.40693 -20.40248 -20.31052 -20.29749
 Alpha  occ. eigenvalues --  -11.13886  -7.39250  -5.29193  -5.29118  -5.29012
 Alpha  occ. eigenvalues --   -1.23768  -1.18619  -1.10200  -1.06339  -0.79203
 Alpha  occ. eigenvalues --   -0.60758  -0.53547  -0.48946  -0.47766  -0.46588
 Alpha  occ. eigenvalues --   -0.40791  -0.38569  -0.35065  -0.33678  -0.31073
 Alpha  occ. eigenvalues --   -0.28746  -0.26584  -0.24983  -0.23375
 Alpha virt. eigenvalues --    0.13683   0.16250   0.18052   0.18554   0.22362
 Alpha virt. eigenvalues --    0.23439   0.23692   0.24785   0.27122   0.28132
 Alpha virt. eigenvalues --    0.29411   0.30454   0.38674   0.40397   0.40930

 Mulliken atomic charges:
              1
     1  H    0.243720
     2  O   -0.610066
     3  P    1.323884
     4  O   -0.527154
     5  O   -0.720507
     6  O   -0.828142
     7  C   -0.084162
     8  H    0.059064
     9  H    0.045483
    10  H    0.097880
 Sum of Mulliken atomic charges =  -1.00000

 Dipole moment (field-independent basis, Debye):
    X=              4.9888    Y=              2.7700    Z=             -1.0159  Tot=              5.7960
 Quadrupole moment (field-independent basis, Debye-Ang):
   XX=            -52.1712   YY=            -48.0613   ZZ=            -55.4023
   XY=             -2.8125   XZ=             -0.2168   YZ=             -2.5895

 Summary of Natural Population Analysis:

                                       Natural Population
                Natural  -----------------------------------------------
    Atom  No    Charge         Core      Valence    Rydberg      Total
 -----------------------------------------------------------------------
      H    1    0.47361      0.00000     0.51864    0.00775     0.52639
      O    2   -1.02736      1.99966     6.92959    0.09811     9.02736
      P    3    2.47376      9.99838     2.32824    0.19961    12.52624
      O    4   -0.85746      1.99963     6.76184    0.09598     8.85746
      O    5   -1.15196      1.99961     7.04326    0.10910     9.15196
      O    6   -1.18414      1.99961     7.07513    0.10940     9.18414
      C    7   -0.17228      1.99915     4.11277    0.06037     6.17228
      H    8    0.14302      0.00000     0.84980    0.00718     0.85698
      H    9    0.14382      0.00000     0.84999    0.00619     0.85618
      H   10    0.15900      0.00000     0.83226    0.00875     0.84100
 =======================================================================
   * Total *   -1.00000     19.99603    37.30152    0.70244    58.00000

 Normal termination of Gaussian 09 at Tue Apr  7 09:49:46 2020.
